# Probe 0 (0 0.0048 -0.0055)
# Probe 1 (0 0.0085 -0.0055)
# Probe 2 (-0.0055 0.007 0)
#       Probe             0             1             2
#        Time
    0.0120005       5568.61        135167       7975.34
     0.012001       5580.71        136990       8467.59
    0.0120015        5692.8        138735       8953.38
     0.012002       5867.02        140721        9435.4
    0.0120025       6157.32        142854       9835.48
     0.012003       6498.22        146362         10153
    0.0120035       6789.69        153651       10464.5
     0.012004       7069.99        162550       10797.6
    0.0120045       7213.92        152972       11097.7
     0.012005       7123.56        141046         11336
    0.0120055       6806.44        142931       11523.1
     0.012006       6488.41        141537       11721.9
    0.0120065       6349.81        141041       11999.5
     0.012007       6243.45        141400       12396.8
    0.0120075       6242.19        141343       12951.3
     0.012008       6293.96        141120       13787.7
    0.0120085       6326.58        142333       14417.9
     0.012009       6318.53        143780       13978.7
    0.0120095       6243.48        144855       12945.9
      0.01201       6135.98        145669       12159.7
    0.0120105       6008.56        146830       11438.7
     0.012011       5867.01        148686       10681.4
    0.0120115       5779.69        149622       9919.35
     0.012012       5741.56        149453       9119.92
    0.0120125       5708.53        149725       8328.99
     0.012013       5698.98        151172       7456.31
    0.0120135       5694.52        152681       6537.02
     0.012014       5633.69        153668       5603.94
    0.0120145       5510.93        154613        4713.8
     0.012015       5365.78        155770       3847.31
    0.0120155       5222.94        157259       3109.55
     0.012016       5098.91        158819       2580.89
    0.0120165       4992.71        160048       2079.95
     0.012017       4910.39        161053       1718.53
    0.0120175       4853.36        162511       1433.18
     0.012018       4812.64        164382       1238.42
    0.0120185        4772.9        166021       1120.15
     0.012019       4721.88        167065       1055.05
    0.0120195       4658.32        167944       1026.08
      0.01202        4606.5        169066       1023.76
    0.0120205       4543.12        170167       1039.12
     0.012021       4476.26        171197       1064.74
    0.0120215       4412.27        172166       1099.87
     0.012022       4351.19        172945       1140.86
    0.0120225       4292.74        173543       1187.66
     0.012023       4240.11        174251       1240.14
    0.0120235       4181.06        175189       1297.93
     0.012024       4132.57        175830       1360.12
    0.0120245        4085.9        176203       1427.05
     0.012025        4052.4        176569       1497.94
    0.0120255       4023.42        176876       1572.24
     0.012026       3991.08        177176       1652.33
    0.0120265       3967.15        177713        1736.1
     0.012027       3946.38        178224       1824.18
    0.0120275       3921.25        178626       1918.67
     0.012028       3900.49        178268       2019.51
    0.0120285       3886.73        177821        2124.5
     0.012029       3873.94        177553       2238.87
    0.0120295       3869.23        176805       2381.91
      0.01203       3876.42        175887       2578.72
    0.0120305       3884.65        174591       2861.69
     0.012031       3890.38        172752       3305.55
    0.0120315       3890.83        170433       4000.53
     0.012032       3892.68        168092       5193.48
    0.0120325       3895.75        165683       7230.01
     0.012033       3892.09        163863       10226.2
    0.0120335       3885.24        162759       13623.7
     0.012034       3877.96        161443       16113.8
    0.0120345       3873.63        159863       17707.5
     0.012035       3866.92        158748       21086.6
    0.0120355        3863.4        158311         27419
     0.012036       3868.32        158236       33305.4
    0.0120365       3884.86        158179       34811.1
     0.012037       3916.21        158281       35548.4
    0.0120375       3961.29        158707       38027.2
     0.012038       4020.82        159374       40118.7
    0.0120385       4093.46        160003       40965.9
     0.012039       4174.56        159632       41956.2
    0.0120395       4258.61        159152       43074.3
      0.01204       4340.31        159815         44622
    0.0120405       4416.23        160968       46099.7
     0.012041       4480.62        162142       47758.2
    0.0120415       4530.19        163235       49437.7
     0.012042       4564.83        164327       51418.5
    0.0120425       4587.42        165164       53126.8
     0.012043       4604.88        165714       54894.6
    0.0120435       4632.05        166497       56926.5
     0.012044       4624.18        167769       56569.5
    0.0120445       4627.96        169047       59210.5
     0.012045       4633.99        169513       61334.1
    0.0120455       4645.06        169923       64792.1
     0.012046        4654.9        170753       69409.1
    0.0120465       4657.14        171130       75475.2
     0.012047        4644.6        171843       83216.9
    0.0120475       4618.91        172751       93987.3
     0.012048       4591.99        173030        106065
    0.0120485       4562.41        172512        124328
     0.012049       4518.96        170703        141087
    0.0120495       4520.52        168840        159943
      0.01205       4500.69        167916        175491
    0.0120505       4469.25        166530        185317
     0.012051       4431.93        164912        193052
    0.0120515       4392.17        163347        199260
     0.012052        4354.8        161406        202383
    0.0120525       4301.57        159317        201881
     0.012053       4247.87        157230        202789
    0.0120535       4193.98        155204        206877
     0.012054       4135.93        152551        213134
    0.0120545       4076.73        150776        220470
     0.012055       4027.95        148820        226893
    0.0120555        3972.1        146962        230768
     0.012056       3926.59        144830        231293
    0.0120565       3876.77        142607        231165
     0.012057       3826.94        140272        231656
    0.0120575       3777.05        138028        232004
     0.012058       3727.36        135738        231999
    0.0120585       3677.31        133555        231729
     0.012059       3626.92        131512        231123
    0.0120595       3577.16        129687        229662
      0.01206       3528.41        127854        228226
    0.0120605       3481.02        126075        226003
     0.012061       3432.27        124170        222716
    0.0120615       3384.29        122571        218470
     0.012062       3333.39        121518        213397
    0.0120625       3282.55        120666        207753
     0.012063       3232.87        120018        200841
    0.0120635       3183.95        119598        193368
     0.012064       3131.24        119116        186376
    0.0120645       3078.42        118550        179133
     0.012065       3027.73        117848        172053
    0.0120655       2979.21        117050        164966
     0.012066       2931.42        116175        158251
    0.0120665       2884.69        115440        151373
     0.012067       2839.08        114617        144742
    0.0120675       2794.53        113746        138282
     0.012068       2752.45        113083        131919
    0.0120685        2712.8        112383        125705
     0.012069       2676.84        111786        119127
    0.0120695       2643.76        111348        112814
      0.01207       2612.22        111103        106498
    0.0120705       2582.82        111031        100295
     0.012071       2555.14        111081       94787.5
    0.0120715       2528.71        111217       89452.3
     0.012072       2503.97        111354       84432.3
    0.0120725        2481.7        111782         79792
     0.012073       2461.96        111990       75295.7
    0.0120735        2444.4        112188       71294.6
     0.012074       2428.78        112299       67610.8
    0.0120745        2414.9        112253       64173.6
     0.012075       2402.55        112169       60893.9
    0.0120755       2391.54        112336       57874.5
     0.012076       2381.69        112380       55117.5
    0.0120765       2372.85        112151       52544.2
     0.012077       2364.92        112196       50166.2
    0.0120775       2357.74        112686       47937.7
     0.012078       2351.23        113713       45925.1
    0.0120785       2345.32        114443       44125.7
     0.012079       2339.92        115163       42536.6
    0.0120795        2334.9        116221       41099.2
      0.01208       2330.25        117408       39756.1
    0.0120805       2325.86        118864       38662.8
     0.012081       2321.69        120349       37875.5
    0.0120815       2317.69        122054       37255.9
     0.012082       2313.84        123805       36665.9
    0.0120825       2310.12        125931       36593.3
     0.012083       2306.51        128171       36714.7
    0.0120835       2303.01        129599       36903.2
     0.012084       2299.62        129424       37364.6
    0.0120845        2296.3        128685       38405.1
     0.012085          2293        128341       39661.1
    0.0120855       2289.78        128502       41003.7
     0.012086       2286.62        128878       42225.1
    0.0120865       2283.51        129594       44144.1
     0.012087       2280.46        130287       45281.6
    0.0120875       2277.46        131157       46532.7
     0.012088       2274.52        132040       48532.1
    0.0120885       2271.64        133054       50354.7
     0.012089       2268.81        134279         51786
    0.0120895       2266.06        135826       53946.2
      0.01209       2263.35        137776       55791.5
    0.0120905        2260.7        140117       57490.1
     0.012091       2258.13        142868       58966.8
    0.0120915       2255.63        146315       60575.1
     0.012092       2253.21        150982       61993.5
    0.0120925       2250.83        156376       62998.1
     0.012093        2248.5        159455       63452.4
    0.0120935       2246.18        160358       63566.1
     0.012094       2243.85        161359         63305
    0.0120945       2241.53        163318       63424.7
     0.012095       2239.21        166137       62899.8
    0.0120955       2236.89        168609       62066.1
     0.012096       2234.58        171736       61043.5
    0.0120965       2232.28        174930       60292.3
     0.012097          2230        178127       60016.1
    0.0120975       2227.74        181244       59993.4
     0.012098       2225.49        184496       60557.8
    0.0120985       2223.24        188030       63242.6
     0.012099       2220.98        191635       66467.4
    0.0120995       2218.74        195600       65707.2
       0.0121       2216.52        200072       60222.2
    0.0121005       2214.31        205515       49741.3
     0.012101       2212.12        211836       38356.6
    0.0121015       2209.95        217280       28564.4
     0.012102       2207.81        219639       20416.5
    0.0121025        2205.7        221163       13641.9
     0.012103       2203.61        223061       8133.82
    0.0121035       2201.56        225463       4276.31
     0.012104       2199.54        228160       1620.63
    0.0121045       2197.56        230899       27.0473
     0.012105       2195.62        233848      -454.223
    0.0121055       2193.74        236826      -542.181
     0.012106       2191.92        239846       -370.04
    0.0121065       2190.16        243406       -78.601
     0.012107       2188.45        247153       205.455
    0.0121075       2186.78        251423       568.307
     0.012108       2185.12        256832       1049.83
    0.0121085       2183.51        263341       1690.21
     0.012109       2181.94        268470       2293.18
    0.0121095       2180.39        269023       2655.39
      0.01211       2178.86        269852       2922.92
    0.0121105       2177.34        272004       3153.59
     0.012111       2175.84        273044       3374.21
    0.0121115       2174.36        273829       3568.57
     0.012112       2172.91        275784       3800.52
    0.0121125        2171.5        278208        4084.3
     0.012113       2170.13        280421       4446.17
    0.0121135       2168.79        282681        4855.8
     0.012114       2167.49        285861       5283.83
    0.0121145       2166.23        289090       5869.42
     0.012115       2165.01        291992       7116.38
    0.0121155       2163.83        294557       9694.74
     0.012116       2162.69        296858       13119.4
    0.0121165        2161.6        298981       15213.2
     0.012117       2160.59        301458       15616.3
    0.0121175       2159.67        304053       15540.4
     0.012118       2158.85        305634       15807.6
    0.0121185        2158.1        307094       16706.8
     0.012119        2157.4        308449       17668.6
    0.0121195       2156.76        309911       18550.2
      0.01212       2156.19        311291       19510.5
    0.0121205        2155.7        311738       20982.5
     0.012121        2155.3        312049         23529
    0.0121215       2154.99        312164       26917.3
     0.012122       2154.74        312841       29662.4
    0.0121225       2154.58        312994       31039.9
     0.012123        2154.5        312426       31938.5
    0.0121235       2154.52        311417       33205.4
     0.012124       2154.65        310667       34842.1
    0.0121245       2154.86        312132       36738.3
     0.012125       2155.15        308033       38682.4
    0.0121255       2155.52        293394       40592.8
     0.012126       2155.99        285022       42453.2
    0.0121265       2156.56        281212       44358.8
     0.012127       2157.21        277774       46184.1
    0.0121275       2157.96        273808       48087.4
     0.012128       2158.79        270019       49998.7
    0.0121285       2159.69        266174       51982.4
     0.012129       2160.59        262166       54060.6
    0.0121295       2161.56        258345       56188.7
      0.01213        2162.6        253402       58051.7
    0.0121305       2163.69        247392       59966.4
     0.012131       2164.87        241216         61883
    0.0121315       2166.07        235392       63806.9
     0.012132       2167.32        230222       65866.2
    0.0121325       2168.61        224969       67624.6
     0.012133        2169.9        219365       69885.6
    0.0121335        2171.2        213500       71877.9
     0.012134       2172.55        207354       74026.7
    0.0121345       2173.86        202049       76289.2
     0.012135       2175.16        196766       78250.2
    0.0121355       2176.46        191049       79874.2
     0.012136       2177.74        185498       81333.8
    0.0121365       2179.02        180282       82914.4
     0.012137       2180.27        175666       84800.8
    0.0121375       2181.48        171156       86339.2
     0.012138       2182.66        166091       87981.5
    0.0121385       2183.82        160275       89076.5
     0.012139       2184.95        154549       90425.3
    0.0121395       2186.04        149680       91661.6
      0.01214        2187.1        145124       92645.8
    0.0121405       2188.13        140809       93229.9
     0.012141       2189.12        136832       93061.4
    0.0121415       2190.08        133346       91417.1
     0.012142       2190.98        129671       89575.3
    0.0121425        2191.8        126465         88064
     0.012143        2192.6        123407         86205
    0.0121435       2193.46        120573       84185.6
     0.012144       2194.32        118081       82027.5
    0.0121445       2195.16        116287       79515.6
     0.012145          2196        114907       76120.5
    0.0121455       2196.85        114390       72698.9
     0.012146       2197.71        114630       69751.8
    0.0121465       2198.59        114849       66695.4
     0.012147        2199.5        114450       63662.8
    0.0121475       2200.42        112240       61041.4
     0.012148       2201.35        109539       58625.4
    0.0121485       2202.29        107525         56011
     0.012149       2203.34        105779       53143.6
    0.0121495       2204.41        103666       50018.4
      0.01215       2205.51        101797       46765.2
    0.0121505       2206.63        100594       44023.9
     0.012151        2207.8       99564.9       41202.8
    0.0121515       2209.04       98534.8       38520.2
     0.012152        2210.4       97628.2       36050.5
    0.0121525       2211.86       97170.1       33713.9
     0.012153       2213.42       97049.3       31422.9
    0.0121535       2215.18       97192.7       29153.2
     0.012154       2216.96       97557.3       27336.4
    0.0121545       2218.95       98036.8       25627.6
     0.012155       2221.08       98665.5       24065.1
    0.0121555       2223.28       99378.3       22623.6
     0.012156       2225.59        100102       21320.9
    0.0121565       2228.01        100912       20155.7
     0.012157       2230.57        101902       19135.8
    0.0121575       2233.28        103385       18248.7
     0.012158       2236.13        105366       17482.7
    0.0121585        2239.1        107698       16888.2
     0.012159       2242.31        110062       16380.3
    0.0121595       2245.74        112417         15957
      0.01216       2249.36        114546       15617.4
    0.0121605       2253.22        116058       15373.8
     0.012161       2257.27        116693       15237.7
    0.0121615       2261.49        116973       15175.6
     0.012162       2265.99        117694       15214.6
    0.0121625       2270.76        118930       15327.7
     0.012163       2275.74        120548       15419.7
    0.0121635       2280.99        122150       15618.1
     0.012164       2286.46        123782       15895.7
    0.0121645       2292.07        125851       16241.9
     0.012165       2297.79        128642       16703.5
    0.0121655       2303.84        131781         17226
     0.012166       2310.27        133299       17900.4
    0.0121665       2316.95        133725       18731.4
     0.012167       2323.82        133727       19675.7
    0.0121675       2330.82        134444       20719.8
     0.012168       2337.98        135889       21863.3
    0.0121685        2345.3        136937       23140.8
     0.012169       2352.78        137706       24548.8
    0.0121695       2360.34        138589       26090.7
      0.01217       2368.01        139646       27765.2
    0.0121705       2375.74        140477       29640.4
     0.012171       2383.56        141249       31668.2
    0.0121715       2391.42        142589         33919
     0.012172       2399.17        143569         36367
    0.0121725       2406.71        142629       38945.5
     0.012173        2413.6        139907       41616.1
    0.0121735       2420.23        136943       44525.1
     0.012174       2427.44        134397       47558.6
    0.0121745       2434.49        132084       50825.6
     0.012175       2441.21        130322         54495
    0.0121755       2447.74        128851       58648.1
     0.012176       2454.12        127572       63545.5
    0.0121765       2460.34        127013       68506.6
     0.012177       2466.38        127264       73886.3
    0.0121775       2472.21        127605       79348.8
     0.012178       2477.48        127186       83779.6
    0.0121785       2483.14        126075       86900.4
     0.012179       2487.96        125198       88755.9
    0.0121795       2494.04        124834       91086.6
      0.01218       2500.06        124710       94674.2
    0.0121805       2505.71        124390       99716.9
     0.012181       2510.32        123921        107401
    0.0121815        2516.1        123500        116039
     0.012182       2522.36        123808        124780
    0.0121825       2527.79        124520        138469
     0.012183       2532.55        125213        159358
    0.0121835       2537.11        125743        171713
     0.012184       2541.56        126233        163316
    0.0121845       2545.66        126837        153193
     0.012185       2549.08        127765        151040
    0.0121855       2553.45        128515        153542
     0.012186       2557.27        129102        158338
    0.0121865       2560.64        129814        163340
     0.012187       2563.65        130717        167620
    0.0121875       2566.15        131668        171411
     0.012188       2568.72        132423        177257
    0.0121885       2570.77        133118        189238
     0.012189       2572.49        133922        212160
    0.0121895       2574.28        134867        234830
      0.01219       2575.74        135937        230047
    0.0121905       2576.99        136870        213670
     0.012191        2577.3        137474        205964
    0.0121915       2577.64        137747        205375
     0.012192        2578.6        137856        206797
    0.0121925       2579.54        137948        208579
     0.012193       2580.79        137915        210136
    0.0121935        2582.2        137767        211080
     0.012194       2583.06        137254        211189
    0.0121945       2582.73        136618        210722
     0.012195        2583.1        136120        209907
    0.0121955       2582.34        134927        209188
     0.012196       2581.12        133836        208569
    0.0121965       2577.87        132544        208004
     0.012197       2574.28        131099        207455
    0.0121975       2570.84        129319        206924
     0.012198       2567.88        127515        206753
    0.0121985       2564.76        125202        206266
     0.012199       2561.29        122594        205934
    0.0121995       2556.95        119687        205802
       0.0122       2552.29        116745        205448
    0.0122005       2546.96        113522        205124
     0.012201       2541.26        110466        204630
    0.0122015       2536.66        107788        203913
     0.012202       2531.45        105325        203131
    0.0122025       2525.65        102958        202439
     0.012203       2519.65        100539        201791
    0.0122035       2512.97         98411        201430
     0.012204       2505.94       96427.6        201248
    0.0122045       2498.63       95007.8        201402
     0.012205       2491.06       93722.7        201483
    0.0122055        2483.2       92540.1        201709
     0.012206       2475.23       90797.4        202134
    0.0122065       2467.14       88519.3        202716
     0.012207       2459.01       86089.4        203148
    0.0122075       2450.76       84476.9        203922
     0.012208       2442.32       84432.7        204661
    0.0122085       2433.88       85124.2        206069
     0.012209       2425.35       86067.3        207922
    0.0122095       2417.03         87562        210338
      0.01221       2408.84       88645.4        213236
    0.0122105       2400.96         89860        215823
     0.012211       2393.24       90941.2        218136
    0.0122115       2385.44       91509.7        220610
     0.012212       2377.43       92541.5        223002
    0.0122125       2369.09       93598.6        225494
     0.012213       2360.11       94393.4        229816
    0.0122135       2351.11       95443.8        234888
     0.012214       2342.05       97866.3        239928
    0.0122145       2333.09        101510        243188
     0.012215       2324.47        104748        245786
    0.0122155        2316.3        106724        248738
     0.012216       2308.64        107764        252385
    0.0122165       2301.29        108258        256480
     0.012217       2293.88        109551        261154
    0.0122175       2286.07        111599        266297
     0.012218        2277.9        114832        273341
    0.0122185       2269.58        119439        286913
     0.012219       2261.46        122592        300298
    0.0122195       2253.68        122626        298226
      0.01222       2246.11        123699        293545
    0.0122205       2238.73        127938        299184
     0.012221       2231.65        135335        308479
    0.0122215       2224.62        142949        321501
     0.012222       2217.77        145594        337869
    0.0122225       2211.35        148034        355343
     0.012223       2205.24        156737        371065
    0.0122235        2199.1        169582        379084
     0.012224       2193.65        182618        373364
    0.0122245       2188.94        201703        364237
     0.012225       2184.91        229850        362938
    0.0122255       2181.12        174695        368952
     0.012226       2177.97        113752        361581
    0.0122265        2175.4        114585        340366
     0.012227       2173.02        110995        328895
    0.0122275       2171.08        110516        327074
     0.012228       2169.55        111207        325049
    0.0122285       2168.13        112453        321084
     0.012229       2166.87        114230        319485
    0.0122295       2165.66        115559        317028
      0.01223       2164.54        115672        314171
    0.0122305       2163.67        113622        311291
     0.012231       2163.42        112572        310864
    0.0122315       2163.02        113334        314122
     0.012232       2162.65        112492        317068
    0.0122325       2162.15        113922        315558
     0.012233       2162.62        114244        311143
    0.0122335       2163.36        116371        307086
     0.012234       2164.29        118846        304453
    0.0122345       2165.42        120684        303959
     0.012235       2166.74        122396        304144
    0.0122355       2168.24        124611        303169
     0.012236       2169.95        128790        301950
    0.0122365       2171.84        132660        301389
     0.012237       2173.83        137220        301134
    0.0122375       2175.95        141379        300510
     0.012238       2178.22        145059        299081
    0.0122385       2180.62        147983        297913
     0.012239       2183.12        148700        297385
    0.0122395       2185.75        149119        297426
      0.01224       2188.48        151003        297376
    0.0122405       2191.33        154183        297053
     0.012241       2194.24        157784        297089
    0.0122415       2197.26        161496        297835
     0.012242       2200.41        164938        299026
    0.0122425       2203.56        168106        300523
     0.012243       2206.92        171186        301699
    0.0122435       2210.34        173918        302862
     0.012244       2213.85        176254        304178
    0.0122445       2217.42        178233        305845
     0.012245       2221.04        179745        307822
    0.0122455       2224.73        180829        309818
     0.012246       2228.47        181540        312003
    0.0122465       2232.27        181714        314252
     0.012247       2236.14        181403        316383
    0.0122475       2240.06        180592        318680
     0.012248       2243.99        179384        321196
    0.0122485       2247.88        177959        323875
     0.012249       2251.85        176535        325789
    0.0122495       2255.95        174417        327374
      0.01225       2260.22        172064        329364
    0.0122505       2264.61        169454        331768
     0.012251          2269        167073        334354
    0.0122515       2273.39        164810        337037
     0.012252       2277.82        162165        339816
    0.0122525       2282.29        159188        342633
     0.012253       2286.86        156209        344914
    0.0122535       2291.56        153294        346545
     0.012254       2296.42        150349        348151
    0.0122545       2301.34        147755        349932
     0.012255       2306.34        145198        351834
    0.0122555       2311.38        142686        353518
     0.012256       2316.36        140227        354645
    0.0122565       2321.28        137819        355387
     0.012257       2326.17        135480        355969
    0.0122575       2331.07        133219        356411
     0.012258       2336.03        131319        356727
    0.0122585       2341.08        129757        357207
     0.012259        2346.2        128426        357486
    0.0122595       2351.35        127208        357057
      0.01226       2356.43        125995        355604
    0.0122605       2361.48        124611        354144
     0.012261        2366.6        123046        352527
    0.0122615       2371.85        121466        350739
     0.012262       2377.23        120228        348784
    0.0122625       2382.72        119823        346514
     0.012263       2388.24        119980        343923
    0.0122635       2393.89        119192        341227
     0.012264       2399.69        117623        338284
    0.0122645       2405.62        116353        335125
     0.012265       2411.72        115836        331435
    0.0122655       2417.91        115360        327752
     0.012266       2424.06        113729        323906