# Probe 0 (0 0.0048 -0.0055)
# Probe 1 (0 0.0085 -0.0055)
# Probe 2 (-0.0055 0.007 0)
#       Probe             0             1             2
#        Time
    0.0120005       14536.1        104739        154191
     0.012001       14535.3        104741        154178
    0.0120015       14534.6        104744        154166
     0.012002       14533.9        104747        154154
    0.0120025       14533.2        104750        154142
     0.012003       14532.5        104754        154130
    0.0120035       14531.8        104758        154118
     0.012004       14531.2        104763        154106
    0.0120045       14530.6        104767        154095
     0.012005         14530        104770        154083
    0.0120055       14529.4        104773        154071
     0.012006       14528.7        104776        154059
    0.0120065         14528        104779        154047
     0.012007       14527.3        104782        154035
    0.0120075       14526.6        104785        154024
     0.012008       14525.9        104788        154012
    0.0120085       14525.3        104791        154000
     0.012009       14524.6        104794        153989
    0.0120095       14523.9        104798        153977
      0.01201       14523.2        104801        153965
    0.0120105       14522.5        104805        153953
     0.012011       14521.8        104808        153941
    0.0120115         14521        104812        153929
     0.012012       14520.3        104816        153917
    0.0120125       14519.6        104820        153905
     0.012013       14518.8        104823        153893
    0.0120135       14518.1        104827        153881
     0.012014       14517.4        104831        153868
    0.0120145       14516.6        104836        153856
     0.012015       14515.9        104840        153844
    0.0120155       14515.1        104844        153831
     0.012016       14514.3        104849        153818
    0.0120165       14513.5        104853        153806
     0.012017       14512.7        104858        153793
    0.0120175       14511.9        104863        153781
     0.012018       14511.1        104868        153768
    0.0120185       14510.3        104873        153755
     0.012019       14509.5        104878        153743
    0.0120195       14508.7        104883        153730
      0.01202       14507.8        104888        153717
    0.0120205         14507        104894        153704
     0.012021       14506.2        104899        153692
    0.0120215       14505.3        104905        153679
     0.012022       14504.5        104911        153666
    0.0120225       14503.6        104916        153654
     0.012023       14502.8        104922        153641
    0.0120235       14501.9        104928        153628
     0.012024       14501.1        104934        153616
    0.0120245       14500.2        104940        153603
     0.012025       14499.3        104946        153591
    0.0120255       14498.5        104952        153578
     0.012026       14497.6        104958        153565
    0.0120265       14496.7        104964        153553
     0.012027       14495.9        104970        153540
    0.0120275         14495        104976        153528
     0.012028       14494.1        104982        153515
    0.0120285       14493.2        104988        153502
     0.012029       14492.3        104994        153490
    0.0120295       14491.5        105000        153477
      0.01203       14490.6        105006        153465
    0.0120305       14489.7        105012        153452
     0.012031       14488.8        105017        153440
    0.0120315       14487.9        105023        153428
     0.012032       14487.1        105028        153415
    0.0120325       14486.2        105033        153403
     0.012033       14485.3        105038        153391
    0.0120335       14484.4        105042        153380
     0.012034       14483.5        105047        153368
    0.0120345       14482.7        105052        153357
     0.012035       14481.8        105056        153346
    0.0120355       14480.9        105061        153336
     0.012036         14480        105065        153326
    0.0120365       14479.2        105069        153316
     0.012037       14478.3        105074        153306
    0.0120375       14477.4        105078        153297
     0.012038       14476.5        105083        153287
    0.0120385       14475.7        105087        153278
     0.012039       14474.8        105092        153269
    0.0120395         14474        105096        153260
      0.01204       14473.1        105101        153251
    0.0120405       14472.3        105105        153242
     0.012041       14471.5        105110        153233
    0.0120415       14470.7        105115        153224
     0.012042       14469.8        105120        153216
    0.0120425         14469        105125        153208
     0.012043       14468.2        105130        153200
    0.0120435       14467.4        105135        153192
     0.012044       14466.6        105140        153184
    0.0120445       14465.8        105145        153176
     0.012045         14465        105151        153168
    0.0120455       14464.1        105156        153161
     0.012046       14463.3        105161        153154
    0.0120465       14462.5        105167        153148
     0.012047       14461.7        105172        153142
    0.0120475       14460.9        105178        153137
     0.012048       14460.1        105184        153133
    0.0120485       14459.3        105189        153131
     0.012049       14458.4        105195        153130
    0.0120495       14457.6        105200        153130
      0.01205       14456.8        105205        153132
    0.0120505         14456        105210        153135
     0.012051       14455.1        105215        153138
    0.0120515       14454.3        105220        153142
     0.012052       14453.5        105225        153146
    0.0120525       14452.6        105229        153150
     0.012053       14451.8        105233        153154
    0.0120535       14450.9        105237        153159
     0.012054       14450.1        105241        153163
    0.0120545       14449.2        105245        153169
     0.012055       14448.4        105249        153175
    0.0120555       14447.5        105252        153182
     0.012056       14446.6        105255        153188
    0.0120565       14445.8        105258        153194
     0.012057       14444.9        105261        153201
    0.0120575         14444        105264        153207
     0.012058       14443.1        105267        153214
    0.0120585       14442.2        105269        153220
     0.012059       14441.3        105271        153227
    0.0120595       14440.5        105273        153233
      0.01206       14439.6        105275        153239
    0.0120605       14438.6        105277        153245
     0.012061       14437.7        105278        153251
    0.0120615       14436.8        105280        153256
     0.012062       14435.9        105281        153261
    0.0120625         14435        105282        153266
     0.012063       14434.1        105283        153270
    0.0120635       14433.1        105285        153273
     0.012064       14432.2        105286        153276
    0.0120645       14431.3        105287        153278
     0.012065       14430.3        105288        153279
    0.0120655       14429.4        105289        153280
     0.012066       14428.4        105290        153281
    0.0120665       14427.5        105291        153281
     0.012067       14426.5        105291        153280
    0.0120675       14425.6        105292        153279
     0.012068       14424.6        105293        153277
    0.0120685       14423.6        105293        153275
     0.012069       14422.7        105294        153272
    0.0120695       14421.7        105294        153269
      0.01207       14420.7        105295        153265
    0.0120705       14419.8        105295        153260
     0.012071       14418.8        105296        153256
    0.0120715       14417.8        105296        153250
     0.012072       14416.8        105297        153245
    0.0120725       14415.8        105297        153239
     0.012073       14414.9        105298        153232
    0.0120735       14413.9        105298        153225
     0.012074       14412.9        105299        153218
    0.0120745       14411.9        105300        153211
     0.012075       14410.9        105300        153203
    0.0120755       14409.9        105301        153196
     0.012076       14408.9        105301        153188
    0.0120765       14407.9        105302        153179
     0.012077       14406.9        105302        153171
    0.0120775         14406        105303        153162
     0.012078         14405        105304        153153
    0.0120785         14404        105304        153144
     0.012079         14403        105305        153135
    0.0120795         14402        105306        153126
      0.01208         14401        105307        153117
    0.0120805         14400        105308        153107
     0.012081         14399        105310        153098
    0.0120815         14398        105311        153088
     0.012082         14397        105312        153079
    0.0120825         14396        105314        153069
     0.012083         14395        105316        153060
    0.0120835         14394        105318        153050
     0.012084         14393        105320        153041
    0.0120845       14392.1        105322        153031
     0.012085       14391.1        105324        153022
    0.0120855       14390.1        105326        153013
     0.012086       14389.1        105328        153003
    0.0120865       14388.1        105330        152995
     0.012087       14387.1        105332        152986
    0.0120875       14386.1        105334        152977
     0.012088       14385.1        105336        152968
    0.0120885       14384.1        105338        152960
     0.012089       14383.1        105341        152952
    0.0120895       14382.1        105343        152944
      0.01209       14381.1        105346        152936
    0.0120905       14380.1        105349        152928
     0.012091       14379.1        105352        152920
    0.0120915       14378.1        105355        152912
     0.012092       14377.1        105359        152905
    0.0120925       14376.1        105363        152898
     0.012093       14375.1        105367        152890
    0.0120935       14374.1        105372        152883
     0.012094       14373.2        105377        152876
    0.0120945       14372.2        105381        152868
     0.012095       14371.2        105386        152861
    0.0120955       14370.2        105392        152853
     0.012096       14369.2        105397        152846
    0.0120965       14368.2        105403        152838
     0.012097       14367.2        105409        152831
    0.0120975       14366.2        105415        152823
     0.012098       14365.2        105421        152815
    0.0120985       14364.2        105428        152808
     0.012099       14363.2        105435        152801
    0.0120995       14362.2        105443        152794
       0.0121       14361.2        105450        152786
    0.0121005       14360.2        105459        152778
     0.012101       14359.2        105467        152768
    0.0121015       14358.2        105476        152758
     0.012102       14357.2        105486        152747
    0.0121025       14356.2        105495        152736
     0.012103       14355.2        105505        152724
    0.0121035       14354.2        105515        152712
     0.012104       14353.2        105525        152700
    0.0121045       14352.2        105535        152687
     0.012105       14351.3        105546        152675
    0.0121055       14350.3        105556        152662
     0.012106       14349.3        105567        152650
    0.0121065       14348.3        105579        152637
     0.012107       14347.3        105590        152625
    0.0121075       14346.3        105602        152612
     0.012108       14345.3        105614        152600
    0.0121085       14344.3        105627        152587
     0.012109       14343.3        105641        152575
    0.0121095       14342.3        105654        152563
      0.01211       14341.3        105667        152551
    0.0121105       14340.3        105681        152538
     0.012111       14339.3        105695        152526
    0.0121115       14338.3        105709        152514
     0.012112       14337.3        105722        152502
    0.0121125       14336.3        105737        152490
     0.012113       14335.3        105751        152478
    0.0121135       14334.3        105765        152465
     0.012114       14333.3        105780        152453
    0.0121145       14332.3        105795        152441
     0.012115       14331.3        105810        152430
    0.0121155       14330.4        105826        152418
     0.012116       14329.4        105841        152406
    0.0121165       14328.4        105857        152395
     0.012117       14327.4        105873        152384
    0.0121175       14326.4        105889        152373
     0.012118       14325.4        105906        152362
    0.0121185       14324.4        105922        152351
     0.012119       14323.4        105939        152340
    0.0121195       14322.4        105955        152329
      0.01212       14321.4        105972        152318
    0.0121205       14320.4        105989        152307
     0.012121       14319.4        106006        152297
    0.0121215       14318.4        106023        152286
     0.012122       14317.4        106039        152276
    0.0121225       14316.4        106056        152266
     0.012123       14315.4        106073        152257
    0.0121235       14314.4        106090        152247
     0.012124       14313.5        106107        152237
    0.0121245       14312.5        106123        152228
     0.012125       14311.5        106140        152219
    0.0121255       14310.5        106155        152210
     0.012126       14309.5        106170        152201
    0.0121265       14308.5        106184        152192
     0.012127       14307.5        106198        152183
    0.0121275       14306.5        106212        152175
     0.012128       14305.5        106225        152166
    0.0121285       14304.5        106238        152158
     0.012129       14303.5        106251        152150
    0.0121295       14302.5        106263        152142
      0.01213       14301.6        106275        152135
    0.0121305       14300.6        106287        152127
     0.012131       14299.6        106298        152120
    0.0121315       14298.6        106308        152113
     0.012132       14297.6        106318        152105
    0.0121325       14296.6        106328        152099
     0.012133       14295.6        106337        152092
    0.0121335       14294.6        106346        152085
     0.012134       14293.6        106354        152079
    0.0121345       14292.7        106362        152073
     0.012135       14291.7        106370        152067
    0.0121355       14290.7        106376        152061
     0.012136       14289.7        106383        152055
    0.0121365       14288.7        106389        152050
     0.012137       14287.7        106395        152044
    0.0121375       14286.7        106400        152039
     0.012138       14285.7        106405        152033
    0.0121385       14284.8        106409        152028
     0.012139       14283.8        106413        152023
    0.0121395       14282.8        106417        152018
      0.01214       14281.8        106420        152014
    0.0121405       14280.8        106422        152009
     0.012141       14279.8        106425        152004
    0.0121415       14278.9        106427        151999
     0.012142       14277.9        106429        151994
    0.0121425       14276.9        106431        151989
     0.012143       14275.9        106432        151983
    0.0121435       14274.9        106433        151978
     0.012144       14273.9        106434        151972
    0.0121445         14273        106435        151966
     0.012145         14272        106436        151960
    0.0121455         14271        106436        151954
     0.012146         14270        106437        151947
    0.0121465         14269        106438        151940
     0.012147         14268        106438        151933
    0.0121475       14267.1        106439        151925
     0.012148       14266.1        106439        151918
    0.0121485       14265.1        106439        151910
     0.012149       14264.1        106439        151902
    0.0121495       14263.1        106439        151894
      0.01215       14262.2        106438        151885
    0.0121505       14261.2        106438        151876
     0.012151       14260.2        106437        151867
    0.0121515       14259.2        106437        151858
     0.012152       14258.2        106436        151849
    0.0121525       14257.3        106435        151839
     0.012153       14256.3        106435        151829
    0.0121535       14255.3        106434        151820
     0.012154       14254.3        106433        151809
    0.0121545       14253.3        106432        151799
     0.012155       14252.4        106432        151789
    0.0121555       14251.4        106431        151778
     0.012156       14250.4        106431        151768
    0.0121565       14249.4        106430        151757
     0.012157       14248.5        106430        151746
    0.0121575       14247.5        106430        151735
     0.012158       14246.5        106429        151724
    0.0121585       14245.5        106430        151714
     0.012159       14244.6        106430        151703
    0.0121595       14243.6        106430        151692
      0.01216       14242.6        106431        151680
    0.0121605       14241.6        106432        151669
     0.012161       14240.7        106433        151658
    0.0121615       14239.7        106434        151647
     0.012162       14238.7        106434        151636
    0.0121625       14237.8        106435        151625
     0.012163       14236.8        106437        151614
    0.0121635       14235.8        106438        151603
     0.012164       14234.8        106439        151592
    0.0121645       14233.9        106441        151581
     0.012165       14232.9        106443        151570
    0.0121655       14231.9        106445        151559
     0.012166         14231        106447        151548
    0.0121665         14230        106449        151538
     0.012167         14229        106451        151527
    0.0121675       14228.1        106454        151516
     0.012168       14227.1        106456        151506
    0.0121685       14226.2        106458        151495
     0.012169       14225.2        106461        151485
    0.0121695       14224.2        106464        151475
      0.01217       14223.3        106466        151465
    0.0121705       14222.3        106469        151455
     0.012171       14221.3        106472        151445
    0.0121715       14220.4        106475        151436
     0.012172       14219.4        106478        151427
    0.0121725       14218.5        106481        151417
     0.012173       14217.5        106483        151409
    0.0121735       14216.6        106486        151400
     0.012174       14215.6        106488        151391
    0.0121745       14214.7        106490        151383
     0.012175       14213.7        106492        151375
    0.0121755       14212.7        106494        151368
     0.012176       14211.8        106496        151361
    0.0121765       14210.8        106497        151354
     0.012177       14209.9        106499        151348
    0.0121775       14208.9        106501        151342
     0.012178         14208        106502        151337
    0.0121785         14207        106504        151331
     0.012179       14206.1        106505        151326
    0.0121795       14205.1        106507        151321
      0.01218       14204.2        106508        151317
    0.0121805       14203.3        106510        151313
     0.012181       14202.3        106511        151309
    0.0121815       14201.4        106513        151306
     0.012182       14200.4        106514        151304
    0.0121825       14199.5        106515        151303
     0.012183       14198.5        106517        151304
    0.0121835       14197.6        106519        151305
     0.012184       14196.6        106520        151306
    0.0121845       14195.7        106522        151306
     0.012185       14194.8        106524        151306
    0.0121855       14193.8        106525        151307
     0.012186       14192.9        106527        151307
    0.0121865       14191.9        106529        151308
     0.012187         14191        106531        151310
    0.0121875       14190.1        106533        151311
     0.012188       14189.1        106535        151313
    0.0121885       14188.2        106537        151316
     0.012189       14187.2        106539        151321
    0.0121895       14186.3        106542        151328
      0.01219       14185.4        106544        151334
    0.0121905       14184.4        106547        151339
     0.012191       14183.5        106549        151344
    0.0121915       14182.6        106552        151348
     0.012192       14181.6        106554        151353
    0.0121925       14180.7        106557        151357
     0.012193       14179.7        106559        151362
    0.0121935       14178.8        106562        151367
     0.012194       14177.9        106564        151372
    0.0121945       14176.9        106567        151376
     0.012195         14176        106569        151381
    0.0121955       14175.1        106571        151386
     0.012196       14174.1        106573        151390
    0.0121965       14173.2        106576        151395
     0.012197       14172.3        106578        151400
    0.0121975       14171.3        106579        151404
     0.012198       14170.4        106581        151408
    0.0121985       14169.5        106583        151413
     0.012199       14168.5        106584        151417
    0.0121995       14167.6        106585        151422
       0.0122       14166.6        106586        151426
    0.0122005       14165.7        106586        151430
     0.012201       14164.8        106587        151435
    0.0122015       14163.8        106587        151439
     0.012202       14162.9        106587        151443
    0.0122025         14162        106586        151447
     0.012203         14161        106586        151451
    0.0122035       14160.1        106585        151455
     0.012204       14159.1        106584        151459
    0.0122045       14158.2        106583        151463
     0.012205       14157.3        106582        151467
    0.0122055       14156.3        106581        151471
     0.012206       14155.4        106580        151475
    0.0122065       14154.4        106579        151480
     0.012207       14153.5        106577        151484
    0.0122075       14152.6        106575        151488
     0.012208       14151.6        106573        151492
    0.0122085       14150.7        106572        151497
     0.012209       14149.7        106570        151501
    0.0122095       14148.8        106568        151506
      0.01221       14147.8        106567        151511
    0.0122105       14146.9        106566        151516
     0.012211       14145.9        106564        151521
    0.0122115         14145        106563        151527
     0.012212         14144        106562        151533
    0.0122125       14143.1        106561        151539
     0.012213       14142.1        106560        151545
    0.0122135       14141.2        106559        151552
     0.012214       14140.3        106558        151559
    0.0122145       14139.3        106558        151566
     0.012215       14138.4        106558        151574
    0.0122155       14137.4        106558        151582
     0.012216       14136.4        106558        151590
    0.0122165       14135.5        106558        151598
     0.012217       14134.5        106558        151607
    0.0122175       14133.6        106559        151616
     0.012218       14132.6        106559        151626
    0.0122185       14131.7        106560        151637
     0.012219       14130.7        106562        151649
    0.0122195       14129.8        106563        151661
      0.01222       14128.8        106564        151672
    0.0122205       14127.9        106566        151684
     0.012221       14126.9        106568        151696
    0.0122215         14126        106571        151710
     0.012222         14125        106574        151725
    0.0122225         14124        106578        151741
     0.012223       14123.1        106582        151759
    0.0122235       14122.1        106587        151777
     0.012224       14121.2        106593        151795
    0.0122245       14120.2        106601        151812
     0.012225       14119.2        106611        151829
    0.0122255       14118.3        106616        151847
     0.012226       14117.3        106617        151863
    0.0122265       14116.4        106617        151879
     0.012227       14115.4        106618        151893
    0.0122275       14114.5        106618        151907
     0.012228       14113.5        106618        151921
    0.0122285       14112.5        106619        151934
     0.012229       14111.6        106619        151948
    0.0122295       14110.6        106620        151961
      0.01223       14109.7        106621        151974
    0.0122305       14108.7        106621        151987
     0.012231       14107.7        106622        152000
    0.0122315       14106.8        106622        152013
     0.012232       14105.8        106623        152026
    0.0122325       14104.9        106623        152039
     0.012233       14103.9        106624        152052
    0.0122335       14102.9        106625        152064
     0.012234         14102        106626        152076
    0.0122345         14101        106627        152088
     0.012235       14100.1        106628        152101
    0.0122355       14099.1        106630        152113
     0.012236       14098.2        106631        152125
    0.0122365       14097.2        106633        152137
     0.012237       14096.3        106636        152149
    0.0122375       14095.3        106639        152161
     0.012238       14094.3        106642        152172
    0.0122385       14093.4        106645        152184
     0.012239       14092.4        106648        152196
    0.0122395       14091.5        106652        152207
      0.01224       14090.5        106655        152219
    0.0122405       14089.6        106659        152231
     0.012241       14088.6        106663        152242
    0.0122415       14087.7        106668        152254
     0.012242       14086.7        106672        152266
    0.0122425       14085.8        106677        152277
     0.012243       14084.8        106682        152289
    0.0122435       14083.9        106688        152302
     0.012244       14082.9        106693        152314
    0.0122445         14082        106699        152326
     0.012245         14081        106705        152338
    0.0122455       14080.1        106711        152351
     0.012246       14079.1        106717        152364
    0.0122465       14078.2        106723        152377
     0.012247       14077.2        106729        152390
    0.0122475       14076.3        106735        152403
     0.012248       14075.3        106741        152417
    0.0122485       14074.4        106746        152430
     0.012249       14073.4        106752        152444
    0.0122495       14072.5        106757        152458
      0.01225       14071.5        106763        152472
    0.0122505       14070.6        106768        152487
     0.012251       14069.6        106772        152501
    0.0122515       14068.7        106777        152516
     0.012252       14067.8        106781        152531
    0.0122525       14066.8        106786        152546
     0.012253       14065.9        106790        152562
    0.0122535       14064.9        106793        152577
     0.012254         14064        106797        152593
    0.0122545       14063.1        106800        152609
     0.012255       14062.1        106803        152625
    0.0122555       14061.2        106806        152641
     0.012256       14060.2        106809        152657
    0.0122565       14059.3        106811        152673
     0.012257       14058.4        106813        152689
    0.0122575       14057.4        106816        152705
     0.012258       14056.5        106818        152722
    0.0122585       14055.6        106819        152738
     0.012259       14054.6        106821        152754
    0.0122595       14053.7        106823        152771
      0.01226       14052.7        106824        152787
    0.0122605       14051.8        106826        152803
     0.012261       14050.9        106827        152819
    0.0122615       14049.9        106828        152835
     0.012262         14049        106829        152850
    0.0122625       14048.1        106830        152866
     0.012263       14047.2        106831        152881
    0.0122635       14046.2        106832        152896
     0.012264       14045.3        106833        152911
    0.0122645       14044.4        106834        152926
     0.012265       14043.4        106835        152940
    0.0122655       14042.5        106835        152954
     0.012266       14041.6        106836        152967