# Probe 0 (0 0.0048 -0.0055)
# Probe 1 (0 0.0085 -0.0055)
# Probe 2 (-0.0055 0.007 0)
#       Probe             0             1             2
#        Time
    0.0120005             (-2.31073 12.1344 3.90832)             (-12.8107 -17.9904 -8.47024)             (-7.08778 -11.7305 2.06676)
     0.012001             (-2.31094 12.0193 3.97651)             (-12.8603 -17.9613 -8.47838)             (-6.98051 -11.5385 2.06065)
    0.0120015             (-2.3076 11.8998 4.03682)             (-12.9091 -17.9294 -8.47713)             (-6.87523 -11.2898 2.05015)
     0.012002             (-2.30048 11.7765 4.08894)             (-12.9571 -17.897 -8.46651)             (-6.77282 -10.9831 2.03567)
    0.0120025             (-2.28975 11.6495 4.13351)             (-13.0041 -17.8664 -8.44635)             (-6.67235 -10.6187 2.01768)
     0.012003             (-2.27554 11.5183 4.1712)             (-13.0501 -17.8403 -8.41719)             (-6.57446 -10.1982 1.99609)
    0.0120035             (-2.25722 11.3847 4.2018)             (-13.0941 -17.8233 -8.38178)             (-6.4798 -9.72077 1.97095)
     0.012004             (-2.23501 11.2487 4.22635)             (-13.1365 -17.8163 -8.34189)             (-6.38884 -9.18463 1.94192)
    0.0120045             (-2.20842 11.1106 4.24601)             (-13.1876 -17.8017 -8.28658)             (-6.30375 -8.59027 1.9092)
     0.012005             (-2.17672 10.9713 4.26171)             (-13.2496 -17.7765 -8.21214)             (-6.22719 -7.94054 1.87344)
    0.0120055             (-2.13914 10.8308 4.27432)             (-13.3144 -17.7566 -8.12778)             (-6.1615 -7.23711 1.83551)
     0.012006             (-2.09617 10.6893 4.28445)             (-13.382 -17.7411 -8.03548)             (-6.10661 -6.4837 1.79603)
    0.0120065             (-2.04894 10.5474 4.29085)             (-13.4519 -17.7318 -7.93654)             (-6.06292 -5.6811 1.7557)
     0.012007             (-1.9978 10.404 4.29393)             (-13.5239 -17.7289 -7.83209)             (-6.03051 -4.82543 1.71543)
    0.0120075             (-1.94379 10.2601 4.29323)             (-13.5992 -17.7315 -7.72251)             (-6.01094 -3.90655 1.67617)
     0.012008             (-1.88728 10.1163 4.28906)             (-13.6787 -17.7383 -7.60783)             (-6.00161 -2.9046 1.63865)
    0.0120085             (-1.82822 9.97371 4.28135)             (-13.762 -17.75 -7.48912)             (-6.00052 -1.84845 1.60015)
     0.012009             (-1.76572 9.83294 4.27013)             (-13.8481 -17.7679 -7.36779)             (-6.01639 -0.898607 1.55903)
    0.0120095             (-1.69893 9.69402 4.25567)             (-13.9366 -17.7928 -7.24545)             (-6.05451 -0.181692 1.52374)
      0.01201             (-1.62739 9.55667 4.2387)             (-14.0267 -17.8257 -7.12396)             (-6.10795 0.377377 1.49524)
    0.0120105             (-1.55111 9.42124 4.21948)             (-14.1184 -17.8667 -7.00407)             (-6.16863 0.849169 1.47128)
     0.012011             (-1.47032 9.28786 4.19831)             (-14.2117 -17.9138 -6.8855)             (-6.23216 1.26611 1.45216)
    0.0120115             (-1.38575 9.15591 4.17583)             (-14.3056 -17.9655 -6.76783)             (-6.29611 1.64482 1.43789)
     0.012012             (-1.29801 9.02493 4.15226)             (-14.3992 -18.0219 -6.65171)             (-6.35918 1.99228 1.42846)
    0.0120125             (-1.20747 8.89505 4.12769)             (-14.4911 -18.0852 -6.53885)             (-6.4205 2.31149 1.42357)
     0.012013             (-1.11461 8.7662 4.10241)             (-14.5809 -18.1563 -6.43068)             (-6.48057 2.6012 1.42236)
    0.0120135             (-1.01975 8.63888 4.07645)             (-14.668 -18.2352 -6.32824)             (-6.53988 2.86002 1.42384)
     0.012014             (-0.922737 8.51377 4.04984)             (-14.7519 -18.3223 -6.2318)             (-6.59789 3.08673 1.42712)
    0.0120145             (-0.823539 8.39177 4.0224)             (-14.8318 -18.4181 -6.14161)             (-6.65317 3.28006 1.4312)
     0.012015             (-0.722438 8.27334 3.99422)             (-14.9069 -18.5227 -6.05836)             (-6.70531 3.43962 1.43503)
    0.0120155             (-0.619344 8.15807 3.96551)             (-14.977 -18.6362 -5.98246)             (-6.75345 3.56608 1.43797)
     0.012016             (-0.514671 8.04547 3.93644)             (-15.0418 -18.7593 -5.91413)             (-6.79658 3.66298 1.43892)
    0.0120165             (-0.408646 7.93507 3.90707)             (-15.1007 -18.8927 -5.85385)             (-6.83445 3.72996 1.43743)
     0.012017             (-0.301557 7.82638 3.87744)             (-15.153 -19.037 -5.80209)             (-6.86584 3.76796 1.43335)
    0.0120175             (-0.193754 7.71903 3.84763)             (-15.199 -19.1919 -5.75925)             (-6.89068 3.77878 1.42663)
     0.012018             (-0.0855445 7.61299 3.81768)             (-15.2387 -19.3577 -5.72591)             (-6.90916 3.76539 1.41719)
    0.0120185             (0.0229625 7.50849 3.78747)             (-15.2722 -19.5348 -5.70262)             (-6.92114 3.73028 1.40482)
     0.012019             (0.131734 7.40581 3.75704)             (-15.299 -19.7237 -5.68991)             (-6.92698 3.6761 1.3894)
    0.0120195             (0.24077 7.3051 3.72635)             (-15.3193 -19.9243 -5.68817)             (-6.92734 3.60541 1.37081)
      0.01202             (0.349876 7.20631 3.69555)             (-15.3335 -20.136 -5.69786)             (-6.92299 3.5209 1.34896)
    0.0120205             (0.458853 7.10936 3.66463)             (-15.3416 -20.3585 -5.71961)             (-6.91493 3.42512 1.32365)
     0.012021             (0.567705 7.01407 3.63362)             (-15.3438 -20.5914 -5.754)             (-6.90405 3.32043 1.2946)
    0.0120215             (0.676453 6.92029 3.60252)             (-15.3402 -20.8339 -5.80163)             (-6.89116 3.20945 1.26175)
     0.012022             (0.784905 6.82803 3.57136)             (-15.331 -21.0851 -5.86307)             (-6.87722 3.09446 1.22497)
    0.0120225             (0.893204 6.73732 3.5402)             (-15.3163 -21.3436 -5.93869)             (-6.86349 2.97785 1.18396)
     0.012023             (1.00162 6.64823 3.50895)             (-15.2962 -21.6081 -6.02894)             (-6.85109 2.86237 1.13877)
    0.0120235             (1.1097 6.56076 3.47754)             (-15.2708 -21.8771 -6.13436)             (-6.84132 2.75054 1.08911)
     0.012024             (1.21775 6.4748 3.44591)             (-15.2394 -22.1491 -6.255)             (-6.83534 2.64414 1.0347)
    0.0120245             (1.32547 6.39023 3.41414)             (-15.2014 -22.4225 -6.39093)             (-6.83433 2.54547 0.974962)
     0.012025             (1.43263 6.30696 3.38233)             (-15.1566 -22.6956 -6.54244)             (-6.83957 2.45552 0.909282)
    0.0120255             (1.53909 6.2249 3.35053)             (-15.1046 -22.9669 -6.71002)             (-6.85236 2.37685 0.836938)
     0.012026             (1.64487 6.14399 3.31869)             (-15.0447 -23.2346 -6.89406)             (-6.8738 2.31269 0.757675)
    0.0120265             (1.74992 6.06424 3.28696)             (-14.9768 -23.4969 -7.09489)             (-6.90476 2.26448 0.671887)
     0.012027             (1.85407 5.98567 3.25529)             (-14.9003 -23.7519 -7.31288)             (-6.94627 2.23293 0.579008)
    0.0120275             (1.95731 5.90829 3.2235)             (-14.8142 -23.9977 -7.54781)             (-6.99963 2.22235 0.478249)
     0.012028             (2.05959 5.83201 3.19165)             (-14.7176 -24.2335 -7.79932)             (-7.06615 2.23538 0.369481)
    0.0120285             (2.16122 5.75669 3.1597)             (-14.6099 -24.4591 -8.06723)             (-7.1443 2.27622 0.257955)
     0.012029             (2.26217 5.68232 3.12777)             (-14.4908 -24.6743 -8.35145)             (-7.23353 2.34757 0.142832)
    0.0120295             (2.36239 5.60881 3.09587)             (-14.3601 -24.8789 -8.65108)             (-7.33346 2.45326 0.0222961)
      0.01203             (2.46174 5.53605 3.06405)             (-14.217 -25.0729 -8.9646)             (-7.44545 2.59773 -0.108609)
    0.0120305             (2.56012 5.4639 3.03238)             (-14.0616 -25.2564 -9.29056)             (-7.57263 2.78397 -0.254125)
     0.012031             (2.6574 5.3924 3.00079)             (-13.8939 -25.4294 -9.62727)             (-7.71947 3.01753 -0.415944)
    0.0120315             (2.75347 5.32154 2.96914)             (-13.7141 -25.5939 -9.97181)             (-7.89316 3.30627 -0.594596)
     0.012032             (2.84836 5.25117 2.93741)             (-13.5222 -25.7513 -10.3219)             (-8.10208 3.66402 -0.790665)
    0.0120325             (2.94205 5.18121 2.90558)             (-13.3175 -25.8966 -10.6749)             (-8.35417 4.11104 -1.01018)
     0.012033             (3.03444 5.11165 2.87349)             (-13.1004 -26.0292 -11.0281)             (-8.65226 4.6615 -1.25971)
    0.0120335             (3.12542 5.04255 2.84112)             (-12.8709 -26.1501 -11.38)             (-8.98771 5.2988 -1.54051)
     0.012034             (3.21493 4.97393 2.80856)             (-12.6289 -26.2579 -11.7279)             (-9.34934 5.95414 -1.84373)
    0.0120345             (3.30287 4.90579 2.77579)             (-12.3739 -26.353 -12.069)             (-9.73378 6.57383 -2.15254)
     0.012035             (3.38909 4.83807 2.74268)             (-12.1055 -26.4369 -12.4006)             (-10.1424 7.18514 -2.45484)
    0.0120355             (3.47355 4.77071 2.70907)             (-11.8231 -26.5103 -12.7198)             (-10.5701 7.82497 -2.74697)
     0.012036             (3.55615 4.70366 2.67476)             (-11.5261 -26.5741 -13.0245)             (-10.9968 8.46933 -3.03007)
    0.0120365             (3.637 4.63666 2.63949)             (-11.2139 -26.628 -13.3128)             (-11.4109 9.05431 -3.30264)
     0.012037             (3.71609 4.56941 2.60299)             (-10.8852 -26.6733 -13.5824)             (-11.8122 9.57404 -3.55946)
    0.0120375             (3.79331 4.50192 2.5648)             (-10.5392 -26.7066 -13.8313)             (-12.1899 10.0448 -3.80302)
     0.012038             (3.86856 4.43418 2.52447)             (-10.1747 -26.7262 -14.0578)             (-12.5404 10.4603 -4.04241)
    0.0120385             (3.94182 4.36612 2.48169)             (-9.79032 -26.7327 -14.2598)             (-12.8732 10.8087 -4.28506)
     0.012039             (4.01306 4.29814 2.43636)             (-9.38421 -26.7243 -14.4354)             (-13.1884 11.0857 -4.53306)
    0.0120395             (4.08236 4.23029 2.38922)             (-8.95528 -26.7007 -14.5833)             (-13.4813 11.284 -4.77513)
      0.01204             (4.1498 4.16261 2.34127)             (-8.50316 -26.6628 -14.7023)             (-13.7564 11.3997 -5.01588)
    0.0120405             (4.21546 4.09509 2.29361)             (-8.02737 -26.6112 -14.7916)             (-14.0143 11.4246 -5.25671)
     0.012041             (4.27936 4.0278 2.24707)             (-7.52734 -26.5449 -14.8502)             (-14.2519 11.3541 -5.4983)
    0.0120415             (4.34151 3.9609 2.20206)             (-7.0026 -26.4638 -14.8772)             (-14.4717 11.193 -5.73788)
     0.012042             (4.40193 3.89477 2.15843)             (-6.45333 -26.3675 -14.8716)             (-14.6753 10.9341 -5.97588)
    0.0120425             (4.46066 3.82967 2.11591)             (-5.87963 -26.256 -14.833)             (-14.8602 10.5834 -6.2127)
     0.012043             (4.51769 3.76543 2.07413)             (-5.28229 -26.1299 -14.7609)             (-15.0248 10.1369 -6.44896)
    0.0120435             (4.57288 3.70179 2.03265)             (-4.66216 -25.9907 -14.6556)             (-15.1705 9.58852 -6.68212)
     0.012044             (4.62657 3.63889 1.99124)             (-4.02062 -25.8415 -14.5161)             (-15.2874 8.92129 -6.90759)
    0.0120445             (4.67865 3.57661 1.94955)             (-3.35929 -25.6837 -14.3433)             (-15.384 8.15459 -7.1345)
     0.012045             (4.72916 3.51494 1.90686)             (-2.68014 -25.5185 -14.1368)             (-15.4657 7.28587 -7.3534)
    0.0120455             (4.77804 3.45365 1.86233)             (-1.98485 -25.3466 -13.8977)             (-15.5355 6.32692 -7.57245)
     0.012046             (4.82529 3.39265 1.81599)             (-1.27561 -25.1706 -13.6268)             (-15.5975 5.28808 -7.79453)
    0.0120465             (4.87096 3.33206 1.76855)             (-0.557746 -24.9932 -13.3253)             (-15.6471 4.18013 -8.0107)
     0.012047             (4.9152 3.27222 1.72045)             (0.166781 -24.8165 -12.9957)             (-15.68 3.01718 -8.21341)
    0.0120475             (4.95803 3.21328 1.67237)             (0.895109 -24.6437 -12.6391)             (-15.6985 1.816 -8.40106)
     0.012048             (4.99942 3.15513 1.62496)             (1.62578 -24.4821 -12.2601)             (-15.6956 0.581008 -8.58638)
    0.0120485             (5.03925 3.09759 1.57979)             (2.35314 -24.3389 -11.8567)             (-15.6827 -0.656956 -8.77128)
     0.012049             (5.07755 3.04071 1.53819)             (3.07884 -24.218 -11.4364)             (-15.6534 -1.90192 -8.94918)
    0.0120495             (5.11454 2.98402 1.49958)             (3.79575 -24.1179 -11.0003)             (-15.6076 -3.11705 -9.10937)
      0.01205             (5.1502 2.92828 1.4643)             (4.50069 -24.0377 -10.5571)             (-15.5462 -4.28984 -9.22333)
    0.0120505             (5.18461 2.87354 1.43219)             (5.19095 -23.9794 -10.1119)             (-15.4744 -5.41262 -9.26163)
     0.012051             (5.21784 2.81975 1.40295)             (5.86431 -23.9443 -9.66913)             (-15.4009 -6.46906 -9.22702)
    0.0120515             (5.24991 2.7669 1.37646)             (6.51807 -23.9332 -9.23395)             (-15.3151 -7.44792 -9.13665)
     0.012052             (5.28071 2.71493 1.35251)             (7.15035 -23.9471 -8.8122)             (-15.2042 -8.33971 -9.01206)
    0.0120525             (5.31076 2.66386 1.33105)             (7.75958 -23.9855 -8.40799)             (-15.0574 -9.14233 -8.87576)
     0.012053             (5.33995 2.61374 1.31218)             (8.34483 -24.0469 -8.02401)             (-14.8875 -9.84874 -8.72804)
    0.0120535             (5.36818 2.56455 1.29577)             (8.905 -24.1286 -7.66366)             (-14.7065 -10.4577 -8.56486)
     0.012054             (5.39554 2.51629 1.28179)             (9.43686 -24.2298 -7.33006)             (-14.5221 -10.9784 -8.37851)
    0.0120545             (5.42196 2.46897 1.27028)             (9.94311 -24.3446 -7.02501)             (-14.3349 -11.4099 -8.16684)
     0.012055             (5.44747 2.42244 1.261)             (10.4237 -24.4729 -6.74903)             (-14.1489 -11.7564 -7.93197)
    0.0120555             (5.47253 2.37685 1.25452)             (10.8799 -24.6098 -6.50306)             (-13.9603 -12.0237 -7.68305)
     0.012056             (5.49703 2.33215 1.25076)             (11.3131 -24.7521 -6.28634)             (-13.7628 -12.2186 -7.4358)
    0.0120565             (5.52107 2.28812 1.24926)             (11.7248 -24.8965 -6.09777)             (-13.5536 -12.3477 -7.19194)
     0.012057             (5.54468 2.24484 1.24997)             (12.1165 -25.0398 -5.93561)             (-13.3352 -12.4148 -6.94942)
    0.0120575             (5.56783 2.2023 1.253)             (12.4894 -25.1786 -5.79792)             (-13.111 -12.4309 -6.70579)
     0.012058             (5.59053 2.16046 1.2583)             (12.8453 -25.31 -5.68189)             (-12.8854 -12.4006 -6.46144)
    0.0120585             (5.61276 2.11935 1.26585)             (13.1851 -25.4314 -5.58591)             (-12.6604 -12.3306 -6.21732)
     0.012059             (5.6345 2.07895 1.27562)             (13.5102 -25.5383 -5.50781)             (-12.4383 -12.2278 -5.97389)
    0.0120595             (5.65574 2.03926 1.28758)             (13.8212 -25.6294 -5.44575)             (-12.2204 -12.0989 -5.73468)
      0.01206             (5.67648 2.00027 1.30165)             (14.1195 -25.7032 -5.39745)             (-12.0058 -11.9489 -5.49844)
    0.0120605             (5.69675 1.96195 1.31773)             (14.4066 -25.7589 -5.35968)             (-11.7941 -11.7834 -5.26673)
     0.012061             (5.71661 1.92432 1.33584)             (14.6838 -25.7975 -5.33207)             (-11.5855 -11.605 -5.0435)
    0.0120615             (5.73607 1.88737 1.35589)             (14.9522 -25.8209 -5.31309)             (-11.3781 -11.4182 -4.83079)
     0.012062             (5.75522 1.85115 1.37793)             (15.2126 -25.8279 -5.30182)             (-11.173 -11.2238 -4.62982)
    0.0120625             (5.77411 1.8156 1.40197)             (15.4661 -25.8202 -5.29809)             (-10.9709 -11.0229 -4.44085)
     0.012063             (5.79275 1.78073 1.42793)             (15.7133 -25.7988 -5.30159)             (-10.7732 -10.8185 -4.26325)
    0.0120635             (5.81113 1.74649 1.45583)             (15.9545 -25.7651 -5.31186)             (-10.5814 -10.6119 -4.09739)
     0.012064             (5.82945 1.71305 1.48562)             (16.1901 -25.7202 -5.32835)             (-10.3939 -10.4023 -3.9404)
    0.0120645             (5.84772 1.68037 1.51717)             (16.42 -25.6645 -5.34985)             (-10.2129 -10.1903 -3.79242)
     0.012065             (5.86587 1.64846 1.55028)             (16.6443 -25.5989 -5.37565)             (-10.0375 -9.9767 -3.65334)
    0.0120655             (5.88389 1.61723 1.58478)             (16.8626 -25.5245 -5.40573)             (-9.86821 -9.76241 -3.52161)
     0.012066             (5.90181 1.58674 1.62048)             (17.0744 -25.442 -5.4398)             (-9.70524 -9.54688 -3.39725)
    0.0120665             (5.91962 1.55694 1.65726)             (17.2792 -25.3523 -5.4757)             (-9.55056 -9.33113 -3.2799)
     0.012067             (5.93735 1.5278 1.69503)             (17.477 -25.2565 -5.51347)             (-9.405 -9.11475 -3.1704)
    0.0120675             (5.95501 1.49933 1.73374)             (17.6674 -25.1555 -5.55297)             (-9.26807 -8.89708 -3.06866)
     0.012068             (5.97259 1.4714 1.77333)             (17.8498 -25.0509 -5.59338)             (-9.14035 -8.67805 -2.97601)
    0.0120685             (5.99014 1.44393 1.81377)             (18.024 -24.9431 -5.63457)             (-9.02138 -8.45735 -2.89224)
     0.012069             (6.00764 1.41691 1.85489)             (18.1896 -24.8329 -5.67697)             (-8.91266 -8.23716 -2.81907)
    0.0120695             (6.02506 1.39032 1.89663)             (18.3463 -24.7213 -5.72063)             (-8.81304 -8.01642 -2.75731)
      0.01207             (6.0424 1.36418 1.93885)             (18.4938 -24.6088 -5.76522)             (-8.72328 -7.79565 -2.7076)
    0.0120705             (6.05967 1.33841 1.98149)             (18.6317 -24.4962 -5.81095)             (-8.64396 -7.57582 -2.66837)
     0.012071             (6.07684 1.31314 2.02449)             (18.7608 -24.3841 -5.85814)             (-8.57286 -7.35487 -2.64)
    0.0120715             (6.09396 1.28836 2.06775)             (18.8821 -24.2728 -5.90674)             (-8.5096 -7.13386 -2.62085)
     0.012072             (6.11106 1.26401 2.11128)             (18.998 -24.1621 -5.95552)             (-8.45383 -6.91317 -2.61043)
    0.0120725             (6.12812 1.23995 2.15504)             (19.1096 -24.0522 -6.00339)             (-8.40537 -6.692 -2.60924)
     0.012073             (6.14515 1.21613 2.19898)             (19.2191 -23.9425 -6.05061)             (-8.36367 -6.47195 -2.6147)
    0.0120735             (6.16215 1.19253 2.24314)             (19.3262 -23.8317 -6.09551)             (-8.32839 -6.25211 -2.62726)
     0.012074             (6.17912 1.16913 2.28748)             (19.4292 -23.7176 -6.13392)             (-8.29948 -6.03168 -2.64702)
    0.0120745             (6.19607 1.1459 2.33197)             (19.5234 -23.5985 -6.1635)             (-8.27721 -5.81112 -2.67214)
     0.012075             (6.21298 1.12284 2.37656)             (19.6059 -23.4742 -6.18471)             (-8.26243 -5.59098 -2.70149)
    0.0120755             (6.22985 1.09994 2.42124)             (19.6764 -23.3447 -6.19859)             (-8.25404 -5.37106 -2.73439)
     0.012076             (6.24669 1.07719 2.46597)             (19.7359 -23.2097 -6.20589)             (-8.25093 -5.15102 -2.77034)
    0.0120765             (6.26349 1.05458 2.51073)             (19.7868 -23.0687 -6.20742)             (-8.25316 -4.93102 -2.80841)
     0.012077             (6.28024 1.0321 2.55551)             (19.829 -22.9221 -6.20348)             (-8.26036 -4.70978 -2.84786)
    0.0120775             (6.29694 1.0098 2.60024)             (19.8622 -22.7708 -6.19483)             (-8.27258 -4.48746 -2.88793)
     0.012078             (6.3136 0.987665 2.64491)             (19.8859 -22.6158 -6.18184)             (-8.28821 -4.2634 -2.92731)
    0.0120785             (6.33022 0.965697 2.6895)             (19.902 -22.4566 -6.16528)             (-8.30821 -4.03646 -2.96645)
     0.012079             (6.34678 0.94389 2.73399)             (19.9113 -22.293 -6.14529)             (-8.33238 -3.80563 -3.00495)
    0.0120795             (6.3633 0.922241 2.77834)             (19.9149 -22.1257 -6.12254)             (-8.36088 -3.56978 -3.04203)
      0.01208             (6.37975 0.900756 2.82252)             (19.9135 -21.9545 -6.09781)             (-8.39294 -3.32803 -3.07692)
    0.0120805             (6.39613 0.879435 2.86649)             (19.9088 -21.7785 -6.07153)             (-8.42878 -3.07931 -3.10934)
     0.012081             (6.41243 0.858275 2.91018)             (19.902 -21.5963 -6.04366)             (-8.46756 -2.82218 -3.13906)
    0.0120815             (6.42865 0.837274 2.95356)             (19.8943 -21.4075 -6.01301)             (-8.50951 -2.55531 -3.16548)
     0.012082             (6.44478 0.816437 2.9966)             (19.887 -21.2131 -5.9783)             (-8.554 -2.27864 -3.18743)
    0.0120825             (6.46082 0.795765 3.03928)             (19.8825 -21.0146 -5.93935)             (-8.6012 -1.98851 -3.20483)
     0.012083             (6.47683 0.775221 3.08161)             (19.8827 -20.8146 -5.8947)             (-8.65069 -1.6833 -3.21707)
    0.0120835             (6.49278 0.75483 3.12354)             (19.884 -20.617 -5.84016)             (-8.70176 -1.3627 -3.22294)
     0.012084             (6.50865 0.734604 3.16506)             (19.877 -20.4263 -5.77449)             (-8.7544 -1.02488 -3.22137)
    0.0120845             (6.52446 0.714543 3.20615)             (19.8579 -20.2458 -5.70196)             (-8.80966 -0.666243 -3.2119)
     0.012085             (6.54017 0.694671 3.24679)             (19.8277 -20.0767 -5.62586)             (-8.86794 -0.285729 -3.19366)
    0.0120855             (6.5558 0.674995 3.28696)             (19.7882 -19.9198 -5.54732)             (-8.92966 0.117242 -3.16611)
     0.012086             (6.57133 0.655521 3.32664)             (19.7405 -19.7754 -5.46594)             (-8.99441 0.541895 -3.12966)
    0.0120865             (6.58677 0.63627 3.36579)             (19.6853 -19.6445 -5.38116)             (-9.06042 0.990653 -3.08121)
     0.012087             (6.60212 0.617254 3.40442)             (19.6223 -19.5277 -5.2929)             (-9.12813 1.45837 -3.02195)
    0.0120875             (6.61738 0.598474 3.44251)             (19.5515 -19.4252 -5.20139)             (-9.19742 1.94528 -2.95017)
     0.012088             (6.63256 0.579936 3.48006)             (19.4723 -19.3376 -5.10638)             (-9.27028 2.45791 -2.86101)
    0.0120885             (6.64765 0.561648 3.51707)             (19.3846 -19.2648 -5.00777)             (-9.34363 2.99231 -2.75487)
     0.012089             (6.66264 0.543615 3.55353)             (19.2884 -19.2065 -4.90376)             (-9.41669 3.54419 -2.63398)
    0.0120895             (6.67752 0.52584 3.58941)             (19.1835 -19.1625 -4.79359)             (-9.49246 4.11425 -2.49753)
      0.01209             (6.69229 0.508331 3.62471)             (19.0694 -19.1324 -4.67647)             (-9.56916 4.69906 -2.34677)
    0.0120905             (6.70693 0.491101 3.6594)             (18.9457 -19.1155 -4.55242)             (-9.64585 5.2961 -2.18262)
     0.012091             (6.72143 0.474151 3.69347)             (18.8119 -19.111 -4.42166)             (-9.72257 5.90308 -2.00738)
    0.0120915             (6.73578 0.457484 3.72691)             (18.6678 -19.1165 -4.28532)             (-9.79794 6.51891 -1.81835)
     0.012092             (6.74995 0.441099 3.75969)             (18.5149 -19.1277 -4.14414)             (-9.87311 7.14214 -1.61708)
    0.0120925             (6.76393 0.425001 3.7918)             (18.3539 -19.1436 -3.99678)             (-9.9488 7.77312 -1.40393)
     0.012093             (6.77772 0.409198 3.8232)             (18.1794 -19.176 -3.84231)             (-10.0223 8.40627 -1.18343)
    0.0120935             (6.7913 0.393694 3.85386)             (17.9859 -19.2333 -3.6827)             (-10.0926 9.03901 -0.957549)
     0.012094             (6.80466 0.378503 3.88373)             (17.7719 -19.3127 -3.51961)             (-10.1598 9.66894 -0.730407)
    0.0120945             (6.81778 0.363626 3.91281)             (17.5389 -19.4083 -3.35378)             (-10.2267 10.2975 -0.501073)
     0.012095             (6.83063 0.349069 3.94106)             (17.2872 -19.5168 -3.18548)             (-10.2904 10.9192 -0.274425)
    0.0120955             (6.84322 0.334837 3.96847)             (17.017 -19.6352 -3.01559)             (-10.3476 11.5311 -0.054763)
     0.012096             (6.85551 0.320935 3.99503)             (16.7283 -19.7629 -2.84568)             (-10.3936 12.1299 0.154325)
    0.0120965             (6.86751 0.307377 4.02071)             (16.4214 -19.8979 -2.67595)             (-10.421 12.7135 0.349363)
     0.012097             (6.87918 0.294172 4.04549)             (16.0974 -20.0384 -2.50707)             (-10.4229 13.2793 0.527384)
    0.0120975             (6.89053 0.281327 4.06938)             (15.7571 -20.1825 -2.33939)             (-10.4053 13.8249 0.688839)
     0.012098             (6.90152 0.268849 4.09238)             (15.4016 -20.3289 -2.17365)             (-10.3752 14.3471 0.837873)
    0.0120985             (6.91214 0.25674 4.1145)             (15.0322 -20.4763 -2.01061)             (-10.3227 14.8425 0.98172)
     0.012099             (6.92237 0.245005 4.13574)             (14.6506 -20.6232 -1.85157)             (-10.262 15.3048 1.12453)
    0.0120995             (6.93221 0.233659 4.15609)             (14.2585 -20.7677 -1.69801)             (-10.2357 15.726 1.25465)
       0.0121             (6.94163 0.22271 4.17557)             (13.8586 -20.9067 -1.55117)             (-10.2495 16.0999 1.35546)
    0.0121005             (6.95062 0.21216 4.19419)             (13.453 -21.0363 -1.41232)             (-10.2978 16.4231 1.42116)
     0.012101             (6.95918 0.202012 4.21198)             (13.0453 -21.1538 -1.283)             (-10.376 16.6939 1.45067)
    0.0121015             (6.9673 0.192263 4.22894)             (12.6376 -21.2646 -1.16534)             (-10.4795 16.9105 1.44796)
     0.012102             (6.97496 0.182913 4.24508)             (12.2315 -21.3778 -1.06128)             (-10.6036 17.0711 1.41665)
    0.0121025             (6.98215 0.17396 4.26042)             (11.8281 -21.4947 -0.971521)             (-10.7445 17.1757 1.36002)
     0.012103             (6.98887 0.165403 4.27497)             (11.4304 -21.6115 -0.896982)             (-10.8981 17.2251 1.28037)
    0.0121035             (6.99513 0.157237 4.28876)             (11.0412 -21.7253 -0.839051)             (-11.059 17.2195 1.1805)
     0.012104             (7.0009 0.149456 4.30182)             (10.6632 -21.8353 -0.798903)             (-11.2226 17.1612 1.06432)
    0.0121045             (7.00619 0.142053 4.31417)             (10.2993 -21.9406 -0.777214)             (-11.3796 17.0517 0.935381)
     0.012105             (7.01099 0.135025 4.32581)             (9.95179 -22.041 -0.774696)             (-11.5234 16.8932 0.798372)
    0.0121055             (7.01531 0.128361 4.33679)             (9.62294 -22.1361 -0.79208)             (-11.6488 16.6866 0.655038)
     0.012106             (7.01914 0.122055 4.34713)             (9.31335 -22.2257 -0.829293)             (-11.7523 16.4346 0.505903)
    0.0121065             (7.02249 0.116095 4.35682)             (9.02421 -22.3101 -0.886459)             (-11.8326 16.1409 0.351289)
     0.012107             (7.02536 0.110471 4.36587)             (8.75672 -22.3889 -0.96374)             (-11.8914 15.8102 0.191272)
    0.0121075             (7.02775 0.105176 4.37428)             (8.5117 -22.4605 -1.0608)             (-11.9326 15.4482 0.025872)
     0.012108             (7.02966 0.100202 4.38206)             (8.29083 -22.5247 -1.17674)             (-11.9609 15.0609 -0.143988)
    0.0121085             (7.03113 0.0955455 4.38923)             (8.09437 -22.5813 -1.31224)             (-11.9818 14.6533 -0.318435)
     0.012109             (7.03216 0.0912017 4.39582)             (7.91964 -22.6302 -1.46611)             (-11.9989 14.2302 -0.497707)
    0.0121095             (7.03276 0.0871644 4.40184)             (7.76021 -22.6693 -1.63388)             (-12.0137 13.7951 -0.682159)
      0.01211             (7.03294 0.0834287 4.4073)             (7.61473 -22.6999 -1.81302)             (-12.0269 13.3507 -0.872666)
    0.0121105             (7.03271 0.0799961 4.41219)             (7.48184 -22.724 -2.00407)             (-12.0389 12.9009 -1.0687)
     0.012111             (7.03209 0.0768667 4.41653)             (7.35918 -22.739 -2.20222)             (-12.0509 12.4473 -1.27022)
    0.0121115             (7.03109 0.0740371 4.42032)             (7.24432 -22.7454 -2.40427)             (-12.0635 11.9897 -1.47821)
     0.012112             (7.02972 0.0715036 4.4236)             (7.13615 -22.7433 -2.60928)             (-12.0782 11.5311 -1.69405)
    0.0121125             (7.02798 0.0692641 4.42638)             (7.03401 -22.7326 -2.81466)             (-12.0968 11.0759 -1.91922)