# Probe 0 (0 0.0048 -0.0055)
# Probe 1 (0 0.0085 -0.0055)
# Probe 2 (-0.0055 0.007 0)
#       Probe             0             1             2
#        Time
    0.0120005             (3.32505 3.61126 -0.185606)             (-2.53195 -14.8518 -8.58094)             (-9.81961 -3.9046 0.271592)
     0.012001             (3.32458 3.61196 -0.185259)             (-2.53281 -14.8521 -8.58093)             (-9.81938 -3.90523 0.271741)
    0.0120015             (3.32411 3.61265 -0.184907)             (-2.53367 -14.8523 -8.58092)             (-9.81913 -3.90585 0.271889)
     0.012002             (3.32364 3.61333 -0.184551)             (-2.53454 -14.8526 -8.58091)             (-9.81888 -3.90644 0.272036)
    0.0120025             (3.32318 3.614 -0.184191)             (-2.53541 -14.8528 -8.5809)             (-9.81862 -3.907 0.272181)
     0.012003             (3.32271 3.61466 -0.183829)             (-2.53629 -14.8531 -8.58089)             (-9.81835 -3.90752 0.272325)
    0.0120035             (3.32225 3.61531 -0.183463)             (-2.53717 -14.8533 -8.58087)             (-9.81807 -3.90801 0.272466)
     0.012004             (3.32178 3.61594 -0.183096)             (-2.53805 -14.8536 -8.58085)             (-9.81778 -3.90845 0.272605)
    0.0120045             (3.32132 3.61657 -0.182727)             (-2.53894 -14.8538 -8.58083)             (-9.81749 -3.90884 0.272742)
     0.012005             (3.32087 3.61718 -0.182357)             (-2.53983 -14.8541 -8.5808)             (-9.81719 -3.90917 0.272875)
    0.0120055             (3.32041 3.61778 -0.181986)             (-2.54073 -14.8543 -8.58076)             (-9.81689 -3.90945 0.273005)
     0.012006             (3.31996 3.61837 -0.181614)             (-2.54163 -14.8545 -8.58072)             (-9.81658 -3.90966 0.273132)
    0.0120065             (3.31951 3.61895 -0.181242)             (-2.54254 -14.8548 -8.58066)             (-9.81626 -3.90981 0.273255)
     0.012007             (3.31907 3.61951 -0.18087)             (-2.54345 -14.855 -8.5806)             (-9.81595 -3.90989 0.273375)
    0.0120075             (3.31863 3.62006 -0.180497)             (-2.54437 -14.8553 -8.58053)             (-9.81563 -3.90989 0.273492)
     0.012008             (3.3182 3.6206 -0.180125)             (-2.5453 -14.8555 -8.58045)             (-9.81532 -3.9098 0.273606)
    0.0120085             (3.31777 3.62113 -0.179754)             (-2.54623 -14.8557 -8.58036)             (-9.815 -3.90963 0.273716)
     0.012009             (3.31735 3.62165 -0.179384)             (-2.54717 -14.856 -8.58026)             (-9.81468 -3.90938 0.273823)
    0.0120095             (3.31693 3.62215 -0.179015)             (-2.54812 -14.8562 -8.58014)             (-9.81437 -3.90907 0.273927)
      0.01201             (3.31652 3.62265 -0.178647)             (-2.54908 -14.8565 -8.58002)             (-9.81406 -3.90871 0.274029)
    0.0120105             (3.31611 3.62313 -0.178281)             (-2.55004 -14.8567 -8.57989)             (-9.81376 -3.90832 0.274128)
     0.012011             (3.31572 3.6236 -0.177917)             (-2.55101 -14.857 -8.57975)             (-9.81346 -3.90789 0.274226)
    0.0120115             (3.31532 3.62406 -0.177555)             (-2.55199 -14.8572 -8.5796)             (-9.81317 -3.90743 0.274323)
     0.012012             (3.31494 3.62451 -0.177195)             (-2.55297 -14.8575 -8.57944)             (-9.81288 -3.90694 0.274419)
    0.0120125             (3.31457 3.62495 -0.176837)             (-2.55396 -14.8578 -8.57927)             (-9.8126 -3.90642 0.274515)
     0.012013             (3.3142 3.62538 -0.176481)             (-2.55496 -14.858 -8.57909)             (-9.81232 -3.90588 0.27461)
    0.0120135             (3.31384 3.62579 -0.176128)             (-2.55597 -14.8583 -8.5789)             (-9.81205 -3.90531 0.274706)
     0.012014             (3.31348 3.6262 -0.175776)             (-2.55699 -14.8586 -8.57871)             (-9.81178 -3.90473 0.274801)
    0.0120145             (3.31314 3.6266 -0.175427)             (-2.55801 -14.8589 -8.57851)             (-9.81152 -3.90414 0.274898)
     0.012015             (3.3128 3.62698 -0.175081)             (-2.55903 -14.8592 -8.5783)             (-9.81126 -3.90353 0.274994)
    0.0120155             (3.31248 3.62736 -0.174737)             (-2.56006 -14.8595 -8.57808)             (-9.81101 -3.9029 0.275091)
     0.012016             (3.31216 3.62773 -0.174395)             (-2.5611 -14.8598 -8.57786)             (-9.81076 -3.90228 0.275187)
    0.0120165             (3.31185 3.62808 -0.174056)             (-2.56214 -14.8602 -8.57763)             (-9.81051 -3.90164 0.275284)
     0.012017             (3.31155 3.62843 -0.173719)             (-2.56319 -14.8605 -8.5774)             (-9.81026 -3.901 0.27538)
    0.0120175             (3.31126 3.62877 -0.173385)             (-2.56424 -14.8609 -8.57717)             (-9.81002 -3.90037 0.275476)
     0.012018             (3.31098 3.6291 -0.173053)             (-2.56529 -14.8613 -8.57693)             (-9.80978 -3.89973 0.275571)
    0.0120185             (3.3107 3.62943 -0.172724)             (-2.56635 -14.8616 -8.57669)             (-9.80954 -3.89909 0.275665)
     0.012019             (3.31044 3.62974 -0.172398)             (-2.56741 -14.8621 -8.57645)             (-9.8093 -3.89847 0.275757)
    0.0120195             (3.31018 3.63005 -0.172074)             (-2.56847 -14.8625 -8.57621)             (-9.80906 -3.89784 0.275848)
      0.01202             (3.30994 3.63034 -0.171753)             (-2.56953 -14.8629 -8.57597)             (-9.80882 -3.89723 0.275937)
    0.0120205             (3.3097 3.63063 -0.171434)             (-2.57059 -14.8634 -8.57574)             (-9.80858 -3.89662 0.276024)
     0.012021             (3.30947 3.63091 -0.171118)             (-2.57165 -14.8638 -8.5755)             (-9.80834 -3.89602 0.276109)
    0.0120215             (3.30926 3.63119 -0.170805)             (-2.57271 -14.8643 -8.57527)             (-9.8081 -3.89543 0.276191)
     0.012022             (3.30905 3.63145 -0.170494)             (-2.57377 -14.8649 -8.57505)             (-9.80785 -3.89485 0.276269)
    0.0120225             (3.30885 3.63171 -0.170186)             (-2.57482 -14.8654 -8.57483)             (-9.80761 -3.89428 0.276345)
     0.012023             (3.30865 3.63196 -0.169881)             (-2.57588 -14.866 -8.57462)             (-9.80736 -3.89372 0.276416)
    0.0120235             (3.30847 3.6322 -0.169578)             (-2.57693 -14.8665 -8.57441)             (-9.80712 -3.89317 0.276484)
     0.012024             (3.3083 3.63244 -0.169278)             (-2.57799 -14.8671 -8.57422)             (-9.80687 -3.89262 0.276547)
    0.0120245             (3.30813 3.63267 -0.16898)             (-2.57903 -14.8678 -8.57404)             (-9.80662 -3.89209 0.276605)
     0.012025             (3.30798 3.63289 -0.168686)             (-2.58008 -14.8684 -8.57387)             (-9.80638 -3.89156 0.276657)
    0.0120255             (3.30783 3.6331 -0.168394)             (-2.58112 -14.8691 -8.57372)             (-9.80613 -3.89104 0.276704)
     0.012026             (3.30769 3.63331 -0.168104)             (-2.58215 -14.8698 -8.57358)             (-9.80589 -3.89053 0.276744)
    0.0120265             (3.30756 3.63351 -0.167818)             (-2.58318 -14.8705 -8.57346)             (-9.80565 -3.89002 0.276776)
     0.012027             (3.30744 3.63371 -0.167534)             (-2.5842 -14.8712 -8.57335)             (-9.80541 -3.88951 0.276801)
    0.0120275             (3.30733 3.6339 -0.167252)             (-2.58522 -14.872 -8.57327)             (-9.80518 -3.889 0.276818)
     0.012028             (3.30723 3.63408 -0.166974)             (-2.58622 -14.8728 -8.5732)             (-9.80495 -3.88849 0.276826)
    0.0120285             (3.30713 3.63426 -0.166698)             (-2.58722 -14.8736 -8.57316)             (-9.80473 -3.88798 0.276824)
     0.012029             (3.30705 3.63443 -0.166425)             (-2.58821 -14.8744 -8.57314)             (-9.80452 -3.88746 0.276813)
    0.0120295             (3.30697 3.63459 -0.166154)             (-2.58918 -14.8752 -8.57315)             (-9.80431 -3.88694 0.276792)
      0.01203             (3.3069 3.63475 -0.165886)             (-2.59015 -14.8761 -8.57318)             (-9.80412 -3.8864 0.27676)
    0.0120305             (3.30684 3.6349 -0.165621)             (-2.5911 -14.8769 -8.57324)             (-9.80393 -3.88585 0.276716)
     0.012031             (3.30678 3.63505 -0.165359)             (-2.59203 -14.8778 -8.57333)             (-9.80376 -3.88528 0.276659)
    0.0120315             (3.30674 3.63518 -0.165099)             (-2.59296 -14.8787 -8.57344)             (-9.8036 -3.88468 0.276586)
     0.012032             (3.3067 3.63532 -0.164841)             (-2.59386 -14.8796 -8.57359)             (-9.80346 -3.88405 0.276498)
    0.0120325             (3.30667 3.63545 -0.164587)             (-2.59475 -14.8805 -8.57376)             (-9.80334 -3.88339 0.276391)
     0.012033             (3.30665 3.63557 -0.164335)             (-2.59562 -14.8814 -8.57397)             (-9.80324 -3.88268 0.276264)
    0.0120335             (3.30663 3.63569 -0.164086)             (-2.59647 -14.8823 -8.5742)             (-9.80318 -3.88192 0.276113)
     0.012034             (3.30662 3.6358 -0.16384)             (-2.5973 -14.8833 -8.57446)             (-9.80314 -3.88111 0.275938)
    0.0120345             (3.30662 3.6359 -0.163596)             (-2.59811 -14.8842 -8.57475)             (-9.80313 -3.88024 0.275737)
     0.012035             (3.30663 3.636 -0.163355)             (-2.5989 -14.8852 -8.57507)             (-9.80316 -3.87932 0.27551)
    0.0120355             (3.30664 3.6361 -0.163118)             (-2.59967 -14.8862 -8.57541)             (-9.80323 -3.87835 0.27526)
     0.012036             (3.30666 3.63618 -0.162882)             (-2.60041 -14.8871 -8.57578)             (-9.80332 -3.87733 0.274986)
    0.0120365             (3.30669 3.63627 -0.16265)             (-2.60112 -14.8881 -8.57617)             (-9.80346 -3.87626 0.27469)
     0.012037             (3.30672 3.63634 -0.162421)             (-2.60181 -14.8891 -8.57658)             (-9.80362 -3.87515 0.274372)
    0.0120375             (3.30677 3.63642 -0.162195)             (-2.60246 -14.8901 -8.57702)             (-9.80382 -3.87399 0.274035)
     0.012038             (3.30681 3.63648 -0.161973)             (-2.60309 -14.891 -8.57747)             (-9.80405 -3.87281 0.273677)
    0.0120385             (3.30686 3.63654 -0.161754)             (-2.60369 -14.892 -8.57794)             (-9.8043 -3.87159 0.2733)
     0.012039             (3.30692 3.6366 -0.161539)             (-2.60425 -14.893 -8.57843)             (-9.80458 -3.87035 0.272902)
    0.0120395             (3.30699 3.63665 -0.161328)             (-2.60477 -14.894 -8.57893)             (-9.80489 -3.8691 0.272484)
      0.01204             (3.30706 3.63669 -0.161121)             (-2.60526 -14.8949 -8.57943)             (-9.80521 -3.86783 0.272046)
    0.0120405             (3.30713 3.63673 -0.160917)             (-2.60571 -14.8959 -8.57995)             (-9.80556 -3.86657 0.271588)
     0.012041             (3.30721 3.63676 -0.160718)             (-2.60612 -14.8969 -8.58047)             (-9.80593 -3.86531 0.271111)
    0.0120415             (3.3073 3.63679 -0.160523)             (-2.60648 -14.8978 -8.58099)             (-9.80632 -3.86406 0.270614)
     0.012042             (3.30739 3.63681 -0.160331)             (-2.6068 -14.8988 -8.58151)             (-9.80672 -3.86284 0.270097)
    0.0120425             (3.30748 3.63682 -0.160142)             (-2.60707 -14.8997 -8.58203)             (-9.80714 -3.86164 0.26956)
     0.012043             (3.30758 3.63684 -0.159957)             (-2.60729 -14.9007 -8.58254)             (-9.80757 -3.86048 0.269004)
    0.0120435             (3.30769 3.63684 -0.159776)             (-2.60746 -14.9016 -8.58304)             (-9.80801 -3.85937 0.268429)
     0.012044             (3.3078 3.63684 -0.159598)             (-2.60758 -14.9025 -8.58353)             (-9.80847 -3.85831 0.267836)
    0.0120445             (3.30791 3.63684 -0.159424)             (-2.60764 -14.9034 -8.58401)             (-9.80893 -3.85732 0.267223)
     0.012045             (3.30803 3.63683 -0.159253)             (-2.60765 -14.9042 -8.58447)             (-9.8094 -3.8564 0.266593)
    0.0120455             (3.30815 3.63681 -0.159085)             (-2.60759 -14.9051 -8.58491)             (-9.80987 -3.85556 0.265945)
     0.012046             (3.30828 3.63679 -0.158922)             (-2.60748 -14.906 -8.58532)             (-9.81035 -3.8548 0.265278)
    0.0120465             (3.30841 3.63676 -0.158763)             (-2.60732 -14.9068 -8.58571)             (-9.81083 -3.85414 0.264594)
     0.012047             (3.30854 3.63673 -0.158607)             (-2.60709 -14.9076 -8.58608)             (-9.81132 -3.85357 0.263893)
    0.0120475             (3.30867 3.6367 -0.158456)             (-2.6068 -14.9084 -8.58641)             (-9.8118 -3.8531 0.263176)
     0.012048             (3.30881 3.63666 -0.158309)             (-2.60645 -14.9092 -8.58672)             (-9.81229 -3.85273 0.262445)
    0.0120485             (3.30896 3.63662 -0.158165)             (-2.60604 -14.91 -8.58699)             (-9.81277 -3.85247 0.261698)
     0.012049             (3.3091 3.63657 -0.158025)             (-2.60557 -14.9108 -8.58722)             (-9.81326 -3.85231 0.260936)
    0.0120495             (3.30925 3.63651 -0.157888)             (-2.60504 -14.9115 -8.58742)             (-9.81374 -3.85225 0.260162)
      0.01205             (3.3094 3.63645 -0.157754)             (-2.60445 -14.9123 -8.58759)             (-9.81421 -3.85228 0.259378)
    0.0120505             (3.30956 3.63639 -0.157622)             (-2.60381 -14.913 -8.58771)             (-9.81468 -3.85241 0.258591)
     0.012051             (3.30972 3.63632 -0.157493)             (-2.60311 -14.9138 -8.5878)             (-9.81514 -3.85263 0.257808)
    0.0120515             (3.30988 3.63625 -0.157367)             (-2.60235 -14.9145 -8.58785)             (-9.81559 -3.85292 0.257031)
     0.012052             (3.31004 3.63618 -0.157242)             (-2.60155 -14.9153 -8.58787)             (-9.81604 -3.8533 0.256266)
    0.0120525             (3.31021 3.63609 -0.157119)             (-2.60069 -14.916 -8.58786)             (-9.81647 -3.85373 0.255511)
     0.012053             (3.31037 3.63601 -0.156997)             (-2.59979 -14.9168 -8.58781)             (-9.81689 -3.85423 0.254769)
    0.0120535             (3.31054 3.63592 -0.156877)             (-2.59884 -14.9175 -8.58774)             (-9.81729 -3.85477 0.254041)
     0.012054             (3.31072 3.63583 -0.156759)             (-2.59784 -14.9183 -8.58763)             (-9.81768 -3.85536 0.253328)
    0.0120545             (3.31089 3.63573 -0.156641)             (-2.59681 -14.9191 -8.5875)             (-9.81806 -3.85599 0.252632)
     0.012055             (3.31107 3.63563 -0.156524)             (-2.59573 -14.9199 -8.58735)             (-9.81841 -3.85664 0.251956)
    0.0120555             (3.31124 3.63553 -0.156407)             (-2.59462 -14.9207 -8.58718)             (-9.81876 -3.85731 0.251301)
     0.012056             (3.31143 3.63542 -0.156291)             (-2.59347 -14.9215 -8.58699)             (-9.81908 -3.858 0.250667)
    0.0120565             (3.31161 3.63531 -0.156175)             (-2.59229 -14.9223 -8.58678)             (-9.81939 -3.8587 0.250052)
     0.012057             (3.31179 3.6352 -0.156059)             (-2.59107 -14.9231 -8.58656)             (-9.81968 -3.85941 0.249458)
    0.0120575             (3.31198 3.63508 -0.155943)             (-2.58983 -14.924 -8.58633)             (-9.81995 -3.86012 0.248884)
     0.012058             (3.31217 3.63496 -0.155826)             (-2.58856 -14.9248 -8.58609)             (-9.8202 -3.86082 0.24833)
    0.0120585             (3.31236 3.63483 -0.155709)             (-2.58725 -14.9257 -8.58585)             (-9.82044 -3.86152 0.247796)
     0.012059             (3.31255 3.6347 -0.15559)             (-2.58593 -14.9266 -8.58559)             (-9.82065 -3.86221 0.247283)
    0.0120595             (3.31274 3.63457 -0.155471)             (-2.58457 -14.9275 -8.58533)             (-9.82085 -3.86289 0.246789)
      0.01206             (3.31294 3.63444 -0.155351)             (-2.58319 -14.9284 -8.58507)             (-9.82103 -3.86356 0.246315)
    0.0120605             (3.31313 3.6343 -0.15523)             (-2.58179 -14.9292 -8.5848)             (-9.8212 -3.86421 0.24586)
     0.012061             (3.31333 3.63416 -0.155107)             (-2.58037 -14.9301 -8.58454)             (-9.82134 -3.86485 0.245424)
    0.0120615             (3.31353 3.63401 -0.154982)             (-2.57892 -14.931 -8.58427)             (-9.82147 -3.86547 0.245005)
     0.012062             (3.31373 3.63387 -0.154856)             (-2.57745 -14.9319 -8.584)             (-9.82158 -3.86608 0.244603)
    0.0120625             (3.31394 3.63372 -0.154727)             (-2.57597 -14.9328 -8.58372)             (-9.82168 -3.86667 0.244217)
     0.012063             (3.31414 3.63356 -0.154597)             (-2.57446 -14.9337 -8.58345)             (-9.82175 -3.86724 0.243845)
    0.0120635             (3.31435 3.63341 -0.154464)             (-2.57293 -14.9346 -8.58318)             (-9.82182 -3.8678 0.243487)
     0.012064             (3.31455 3.63325 -0.154329)             (-2.57138 -14.9355 -8.58292)             (-9.82186 -3.86834 0.243142)
    0.0120645             (3.31476 3.63309 -0.154191)             (-2.56982 -14.9364 -8.58265)             (-9.8219 -3.86886 0.242809)
     0.012065             (3.31497 3.63292 -0.15405)             (-2.56823 -14.9373 -8.58238)             (-9.82191 -3.86936 0.242488)
    0.0120655             (3.31518 3.63276 -0.153907)             (-2.56663 -14.9382 -8.58212)             (-9.82192 -3.86985 0.242178)
     0.012066             (3.3154 3.63259 -0.153761)             (-2.56501 -14.939 -8.58186)             (-9.82191 -3.87032 0.241878)
    0.0120665             (3.31561 3.63242 -0.153611)             (-2.56338 -14.9399 -8.58161)             (-9.82189 -3.87077 0.241588)
     0.012067             (3.31583 3.63224 -0.153459)             (-2.56172 -14.9407 -8.58135)             (-9.82185 -3.8712 0.241307)
    0.0120675             (3.31605 3.63207 -0.153304)             (-2.56006 -14.9416 -8.58111)             (-9.82181 -3.87161 0.241034)
     0.012068             (3.31626 3.63189 -0.153145)             (-2.55838 -14.9424 -8.58086)             (-9.82175 -3.87201 0.240769)
    0.0120685             (3.31648 3.63171 -0.152983)             (-2.55668 -14.9432 -8.58062)             (-9.82168 -3.87239 0.240511)
     0.012069             (3.31671 3.63153 -0.152817)             (-2.55497 -14.944 -8.58038)             (-9.82161 -3.87275 0.240258)
    0.0120695             (3.31693 3.63134 -0.152648)             (-2.55325 -14.9448 -8.58014)             (-9.82153 -3.87309 0.240012)
      0.01207             (3.31715 3.63116 -0.152476)             (-2.55152 -14.9456 -8.57991)             (-9.82144 -3.87341 0.239769)
    0.0120705             (3.31738 3.63097 -0.1523)             (-2.54977 -14.9464 -8.57968)             (-9.82134 -3.87372 0.239529)
     0.012071             (3.31761 3.63078 -0.152121)             (-2.54802 -14.9472 -8.57946)             (-9.82124 -3.874 0.239292)
    0.0120715             (3.31784 3.63058 -0.151938)             (-2.54625 -14.948 -8.57924)             (-9.82113 -3.87427 0.239057)
     0.012072             (3.31807 3.63039 -0.151752)             (-2.54448 -14.9487 -8.57902)             (-9.82102 -3.87452 0.238822)
    0.0120725             (3.3183 3.63019 -0.151562)             (-2.54269 -14.9495 -8.57881)             (-9.8209 -3.87475 0.238587)
     0.012073             (3.31853 3.62999 -0.151368)             (-2.5409 -14.9502 -8.5786)             (-9.82078 -3.87497 0.238352)
    0.0120735             (3.31876 3.62979 -0.151171)             (-2.5391 -14.951 -8.5784)             (-9.82066 -3.87516 0.238117)
     0.012074             (3.319 3.62959 -0.150971)             (-2.53729 -14.9517 -8.5782)             (-9.82053 -3.87534 0.237879)
    0.0120745             (3.31924 3.62939 -0.150766)             (-2.53548 -14.9524 -8.578)             (-9.8204 -3.8755 0.23764)
     0.012075             (3.31947 3.62918 -0.150558)             (-2.53366 -14.9531 -8.5778)             (-9.82028 -3.87564 0.237398)
    0.0120755             (3.31971 3.62897 -0.150347)             (-2.53183 -14.9538 -8.5776)             (-9.82015 -3.87576 0.237153)
     0.012076             (3.31995 3.62876 -0.150131)             (-2.53 -14.9545 -8.57741)             (-9.82002 -3.87587 0.236906)
    0.0120765             (3.3202 3.62855 -0.149912)             (-2.52816 -14.9551 -8.57721)             (-9.81989 -3.87596 0.236655)
     0.012077             (3.32044 3.62834 -0.14969)             (-2.52632 -14.9558 -8.57702)             (-9.81976 -3.87602 0.236401)
    0.0120775             (3.32069 3.62812 -0.149464)             (-2.52448 -14.9564 -8.57682)             (-9.81963 -3.87607 0.236144)
     0.012078             (3.32093 3.6279 -0.149234)             (-2.52263 -14.9571 -8.57663)             (-9.81951 -3.87611 0.235884)
    0.0120785             (3.32118 3.62768 -0.149)             (-2.52079 -14.9577 -8.57643)             (-9.81938 -3.87612 0.235621)
     0.012079             (3.32143 3.62746 -0.148763)             (-2.51894 -14.9583 -8.57623)             (-9.81926 -3.87611 0.235354)
    0.0120795             (3.32168 3.62724 -0.148522)             (-2.5171 -14.9589 -8.57603)             (-9.81914 -3.87609 0.235084)
      0.01208             (3.32193 3.62702 -0.148278)             (-2.51525 -14.9594 -8.57582)             (-9.81902 -3.87604 0.234812)
    0.0120805             (3.32218 3.62679 -0.14803)             (-2.51341 -14.96 -8.57562)             (-9.81891 -3.87598 0.234537)
     0.012081             (3.32244 3.62656 -0.147779)             (-2.51157 -14.9605 -8.57541)             (-9.8188 -3.87589 0.23426)
    0.0120815             (3.32269 3.62633 -0.147524)             (-2.50973 -14.9611 -8.5752)             (-9.81869 -3.87578 0.23398)
     0.012082             (3.32295 3.6261 -0.147265)             (-2.50788 -14.9616 -8.57498)             (-9.81859 -3.87565 0.233699)
    0.0120825             (3.32321 3.62587 -0.147003)             (-2.50604 -14.9621 -8.57477)             (-9.81849 -3.8755 0.233416)
     0.012083             (3.32347 3.62564 -0.146738)             (-2.5042 -14.9626 -8.57455)             (-9.81839 -3.87532 0.233133)
    0.0120835             (3.32373 3.6254 -0.146469)             (-2.50236 -14.963 -8.57432)             (-9.8183 -3.87511 0.232849)
     0.012084             (3.32399 3.62516 -0.146197)             (-2.50052 -14.9635 -8.57409)             (-9.81821 -3.87488 0.232565)
    0.0120845             (3.32425 3.62492 -0.145921)             (-2.49869 -14.9639 -8.57386)             (-9.81813 -3.87461 0.232282)
     0.012085             (3.32452 3.62468 -0.145643)             (-2.49685 -14.9643 -8.57361)             (-9.81805 -3.87432 0.232)
    0.0120855             (3.32478 3.62444 -0.145361)             (-2.49502 -14.9647 -8.57336)             (-9.81798 -3.87399 0.231721)
     0.012086             (3.32505 3.6242 -0.145075)             (-2.49319 -14.9651 -8.57311)             (-9.81791 -3.87363 0.231445)
    0.0120865             (3.32532 3.62395 -0.144787)             (-2.49137 -14.9655 -8.57285)             (-9.81785 -3.87323 0.231173)
     0.012087             (3.32558 3.6237 -0.144495)             (-2.48956 -14.9659 -8.57258)             (-9.81779 -3.87279 0.230905)
    0.0120875             (3.32585 3.62346 -0.144201)             (-2.48775 -14.9663 -8.5723)             (-9.81774 -3.87231 0.230644)
     0.012088             (3.32613 3.62321 -0.143903)             (-2.48594 -14.9666 -8.57202)             (-9.81769 -3.87179 0.23039)
    0.0120885             (3.3264 3.62295 -0.143602)             (-2.48415 -14.967 -8.57172)             (-9.81766 -3.87123 0.230145)
     0.012089             (3.32667 3.6227 -0.143299)             (-2.48236 -14.9673 -8.57142)             (-9.81762 -3.87062 0.22991)
    0.0120895             (3.32695 3.62245 -0.142992)             (-2.48058 -14.9677 -8.57111)             (-9.8176 -3.86996 0.229686)
      0.01209             (3.32722 3.62219 -0.142683)             (-2.47881 -14.968 -8.57079)             (-9.81758 -3.86926 0.229474)
    0.0120905             (3.3275 3.62193 -0.142371)             (-2.47705 -14.9684 -8.57046)             (-9.81756 -3.86851 0.229276)
     0.012091             (3.32778 3.62168 -0.142056)             (-2.4753 -14.9687 -8.57012)             (-9.81755 -3.8677 0.229093)
    0.0120915             (3.32806 3.62142 -0.141738)             (-2.47357 -14.969 -8.56977)             (-9.81755 -3.86685 0.228925)
     0.012092             (3.32834 3.62116 -0.141418)             (-2.47185 -14.9694 -8.56941)             (-9.81756 -3.86595 0.228773)
    0.0120925             (3.32862 3.62089 -0.141095)             (-2.47014 -14.9697 -8.56903)             (-9.81757 -3.86499 0.228639)
     0.012093             (3.32891 3.62063 -0.14077)             (-2.46844 -14.9701 -8.56864)             (-9.81758 -3.86399 0.228523)
    0.0120935             (3.32919 3.62036 -0.140442)             (-2.46676 -14.9704 -8.56824)             (-9.81761 -3.86293 0.228426)
     0.012094             (3.32948 3.6201 -0.140112)             (-2.4651 -14.9708 -8.56783)             (-9.81763 -3.86182 0.228347)
    0.0120945             (3.32976 3.61983 -0.13978)             (-2.46346 -14.9711 -8.5674)             (-9.81767 -3.86066 0.228288)
     0.012095             (3.33005 3.61956 -0.139445)             (-2.46184 -14.9715 -8.56696)             (-9.81771 -3.85944 0.228246)
    0.0120955             (3.33034 3.61929 -0.139108)             (-2.46024 -14.9719 -8.5665)             (-9.81775 -3.85818 0.228223)
     0.012096             (3.33063 3.61902 -0.138769)             (-2.45867 -14.9723 -8.56603)             (-9.8178 -3.85687 0.228217)
    0.0120965             (3.33092 3.61875 -0.138428)             (-2.45712 -14.9727 -8.56555)             (-9.81785 -3.85551 0.228227)
     0.012097             (3.33121 3.61848 -0.138085)             (-2.4556 -14.9731 -8.56505)             (-9.8179 -3.85411 0.228251)
    0.0120975             (3.3315 3.61821 -0.13774)             (-2.45411 -14.9735 -8.56454)             (-9.81794 -3.85266 0.228289)
     0.012098             (3.33179 3.61793 -0.137393)             (-2.45264 -14.974 -8.56402)             (-9.81799 -3.85116 0.228339)
    0.0120985             (3.33209 3.61765 -0.137044)             (-2.45121 -14.9744 -8.56348)             (-9.81803 -3.84963 0.228401)
     0.012099             (3.33238 3.61738 -0.136694)             (-2.44981 -14.9749 -8.56293)             (-9.81807 -3.84806 0.228474)
    0.0120995             (3.33267 3.6171 -0.136342)             (-2.44844 -14.9754 -8.56237)             (-9.8181 -3.84646 0.228559)
       0.0121             (3.33297 3.61682 -0.135989)             (-2.4471 -14.9758 -8.5618)             (-9.81814 -3.84482 0.228651)
    0.0121005             (3.33327 3.61654 -0.135634)             (-2.4458 -14.9763 -8.56121)             (-9.81818 -3.84316 0.228749)
     0.012101             (3.33356 3.61626 -0.135277)             (-2.44453 -14.9768 -8.56061)             (-9.81822 -3.84148 0.228849)
    0.0121015             (3.33386 3.61598 -0.13492)             (-2.44329 -14.9774 -8.56001)             (-9.81828 -3.83978 0.228949)
     0.012102             (3.33416 3.6157 -0.134561)             (-2.44209 -14.9779 -8.55939)             (-9.81834 -3.83806 0.229046)
    0.0121025             (3.33446 3.61542 -0.134201)             (-2.44092 -14.9784 -8.55877)             (-9.81842 -3.83634 0.229139)
     0.012103             (3.33476 3.61514 -0.133839)             (-2.43978 -14.979 -8.55814)             (-9.81851 -3.83462 0.229225)
    0.0121035             (3.33506 3.61485 -0.133477)             (-2.43868 -14.9795 -8.55751)             (-9.81861 -3.83289 0.229303)
     0.012104             (3.33536 3.61457 -0.133114)             (-2.43761 -14.9801 -8.55688)             (-9.81872 -3.83117 0.229371)
    0.0121045             (3.33566 3.61429 -0.13275)             (-2.43656 -14.9806 -8.55624)             (-9.81885 -3.82946 0.229429)
     0.012105             (3.33596 3.614 -0.132384)             (-2.43555 -14.9812 -8.5556)             (-9.81899 -3.82776 0.229476)
    0.0121055             (3.33626 3.61372 -0.132018)             (-2.43456 -14.9818 -8.55496)             (-9.81914 -3.82608 0.22951)
     0.012106             (3.33656 3.61343 -0.131652)             (-2.4336 -14.9824 -8.55433)             (-9.8193 -3.82442 0.229533)
    0.0121065             (3.33687 3.61314 -0.131284)             (-2.43266 -14.983 -8.5537)             (-9.81946 -3.82279 0.229543)
     0.012107             (3.33717 3.61286 -0.130916)             (-2.43174 -14.9836 -8.55308)             (-9.81963 -3.82118 0.22954)
    0.0121075             (3.33747 3.61257 -0.130547)             (-2.43085 -14.9842 -8.55247)             (-9.81981 -3.8196 0.229523)
     0.012108             (3.33777 3.61228 -0.130178)             (-2.42997 -14.9848 -8.55187)             (-9.81998 -3.81806 0.229493)
    0.0121085             (3.33807 3.61199 -0.129808)             (-2.42911 -14.9855 -8.55127)             (-9.82016 -3.81655 0.229448)
     0.012109             (3.33838 3.61171 -0.129437)             (-2.42826 -14.9861 -8.55069)             (-9.82034 -3.81507 0.229388)
    0.0121095             (3.33868 3.61142 -0.129067)             (-2.42743 -14.9867 -8.55013)             (-9.82052 -3.81363 0.229314)
      0.01211             (3.33898 3.61113 -0.128695)             (-2.42661 -14.9873 -8.54958)             (-9.8207 -3.81222 0.229224)
    0.0121105             (3.33928 3.61084 -0.128324)             (-2.4258 -14.988 -8.54904)             (-9.82088 -3.81086 0.229117)