# Probe 0 (0 0.0048 -0.0055)
# Probe 1 (0 0.0085 -0.0055)
# Probe 2 (-0.0055 0.007 0)
#       Probe             0             1             2
#        Time
    0.0100005       46712.5        111951        185572
     0.010001       46335.7        107125        186365
    0.0100015       45111.8        103400        188324
     0.010002       43175.1       99172.6        192363
    0.0100025       42042.7       96119.6        196646
     0.010003       41471.5       92668.8        200270
    0.0100035       40495.1       87323.8        201508
     0.010004       39291.3       84026.6        201544
    0.0100045       38980.7       82845.8        206193
     0.010005       37967.1       82475.5        215260
    0.0100055       36510.3       82579.5        223098
     0.010006       35651.6       83348.4        223191
    0.0100065       34618.8       83773.3        218225
     0.010007       33152.6         84080        213803
    0.0100075       31129.2       84477.2        212895
     0.010008       29765.2       85126.8        212301
    0.0100085       28221.1       85670.1        210229
     0.010009       26031.6         86751        207053
    0.0100095       24006.8       88016.8        205230
      0.01001       21960.7       88416.9        205499
    0.0100105       19934.9       88010.9        207551
     0.010011       17998.3       88041.3        208886
    0.0100115       16483.1       88889.6        210822
     0.010012       15352.2       89006.2        214309
    0.0100125       14152.4       87767.3        218349
     0.010013       12951.7       86248.8        222094
    0.0100135       11826.3       84974.9        225579
     0.010014       10903.9       83626.4        228705
    0.0100145       10074.4       81902.6        232379
     0.010015       9282.03       79895.6        237487
    0.0100155       8593.84       77490.3        240902
     0.010016       7860.45       75423.6        244829
    0.0100165       7188.74       73636.5        248096
     0.010017        6579.2       72169.3        251117
    0.0100175       6019.35       71162.8        254397
     0.010018       5504.28       70455.8        258003
    0.0100185       5012.69       69945.4        261543
     0.010019       4559.34       69784.5        264612
    0.0100195       4189.53       69942.2        267039
      0.01002       3889.08       70293.8        268929
    0.0100205       3630.66       71027.3        271917
     0.010021       3412.94         72078        274392
    0.0100215       3245.89       73346.6        276670
     0.010022       3114.26       74988.8        279532
    0.0100225       2993.86       77018.7        282135
     0.010023       2877.91         79764        284285
    0.0100235       2772.03       83722.3        286153
     0.010024       2679.96       89381.9        288315
    0.0100245        2608.2       97706.2        290649
     0.010025       2550.82        108603        292411
    0.0100255       2501.67        123775        294403
     0.010026       2456.78        146478        295328
    0.0100265       2421.56        168903        298100
     0.010027       2374.51        179090        299402
    0.0100275       2319.04        185981        301024
     0.010028       2267.85        198128        302266
    0.0100285       2231.29        218863        303319
     0.010029       2199.18        252925        303676
    0.0100295       2172.77        302404        304699
      0.01003       2147.57        353363        304081
    0.0100305       2122.79        377876        303911
     0.010031       2099.86        379911        303210
    0.0100315       2080.05        397137        302439
     0.010032       2063.56        441083        301277
    0.0100325          2050        470513        299474
     0.010033       2038.75        436121        297588
    0.0100335       2028.97        388662        295163
     0.010034       2020.36        340501        292257
    0.0100345       2012.79        306610        288782
     0.010035       2006.38        256780        285107
    0.0100355       2000.28        222300        280552
     0.010036       1994.82        201051        275843
    0.0100365       1990.02        186240        271061
     0.010037       1985.91        180065        265808
    0.0100375       1982.98        159500        260690
     0.010038       1981.47        126822        254812
    0.0100385       1981.23        100697        248603
     0.010039       1981.57         91661        242033
    0.0100395        1982.2       88601.7        235386
      0.01004       1983.04       86238.6        228329
    0.0100405       1984.08       83372.3        220852
     0.010041       1985.75         78003        213978
    0.0100415       1987.82       75683.5        206945
     0.010042       1990.75       75222.3        199862
    0.0100425       1994.34       74855.7        193068
     0.010043       1998.82         73588        186815
    0.0100435       2004.12       71554.5        181788
     0.010044        2010.3       70032.8        177772
    0.0100445       2017.37       68954.6        173285
     0.010045       2025.48       68125.2        166908
    0.0100455       2034.67       67892.4        158543
     0.010046       2044.97       68349.6        150799
    0.0100465       2056.48       68879.9        144355
     0.010047       2069.27         69425        138835
    0.0100475       2083.31       70146.5        134046
     0.010048       2098.56       70864.3        129597
    0.0100485       2114.98       71863.7        125776
     0.010049       2132.44       73046.5        122006
    0.0100495       2150.73       74503.5        118620
      0.01005       2169.66       75668.7        116123
    0.0100505       2188.92         77240        113324
     0.010051       2208.52       78624.2        111472
    0.0100515        2228.3       79647.1        109691
     0.010052       2247.88       80334.6        108482
    0.0100525       2267.16       81334.5        107637
     0.010053       2286.26         82914        107210
    0.0100535       2305.02       84765.2        107788
     0.010054       2323.85       86309.8        108659
    0.0100545       2343.16       87352.5        109703
     0.010055       2362.69       88221.9        110316
    0.0100555       2381.65       88712.5        111792
     0.010056       2399.37       88941.1        113614
    0.0100565       2415.42       89213.3        116192
     0.010057       2429.34       89655.8        118584
    0.0100575       2441.27         90005        121250
     0.010058       2452.23       89588.6        124647
    0.0100585       2463.01         88806        128615
     0.010059       2472.65       88075.9        133226
    0.0100595       2480.79       86854.8        138875
      0.01006       2486.94       85626.8        145591
    0.0100605       2491.54       85154.4        151050
     0.010061        2494.2       84855.8        157562
    0.0100615       2493.31       84670.2        164955
     0.010062        2492.7       84395.9        173646
    0.0100625       2493.42       84151.6        183210
     0.010063        2492.7       84085.9        192281
    0.0100635       2491.48       84105.3        202592
     0.010064       2489.87       83940.2        213734
    0.0100645       2487.67         83534        224984
     0.010065       2484.41       83052.1        237113
    0.0100655       2481.04       82898.9        250840
     0.010066       2479.97         83408        264863
    0.0100665       2482.43       84276.6        278473
     0.010067       2487.92       84820.8        292241
    0.0100675       2495.94         85116        306172
     0.010068        2506.9       85977.1        319901
    0.0100685       2523.28       86604.3        332240
     0.010069        2549.3       87030.2        345662
    0.0100695       2585.91       87383.7        358355
      0.01007       2630.56       87384.4        370632
    0.0100705       2680.57       87415.4        384492
     0.010071       2733.65       87795.5        397211
    0.0100715       2785.59       89017.1        410507
     0.010072       2825.21       90883.3        425075
    0.0100725       2844.44       89647.3        437821
     0.010073       2854.54         85983        447867
    0.0100735       2860.26       85844.3        456495
     0.010074       2902.28       85599.2        466879
    0.0100745       2933.01       86005.9        476355
     0.010075       2965.05       86789.8        482796
    0.0100755       3008.06         87789        488960
     0.010076       3060.23       89011.8        494158
    0.0100765       3113.63       90794.2        498448
     0.010077       3173.75       93032.8        502180
    0.0100775       3254.41       95437.9        504458
     0.010078       3355.11       97631.1        505844
    0.0100785       3474.45       99107.8        505986
     0.010079       3619.97        100613        506462
    0.0100795       3799.65        102037        506689
      0.01008       4018.09        104582        504150
    0.0100805       4271.61        109241        501395
     0.010081       4546.43        116487        495741
    0.0100815        4810.6        125788        486093
     0.010082       5049.69        135870        477009
    0.0100825       5280.52        144486        467912
     0.010083       5513.18        155196        457668
    0.0100835       5799.06        176139        445737
     0.010084       6171.99        211204        435559
    0.0100845       6367.09        230869        424044
     0.010085        6537.2        222716        411998
    0.0100855       6727.66        211778        399570
     0.010086       6895.66        213610        386804
    0.0100865       7045.85        224512        373590
     0.010087       7190.03        236783        360879
    0.0100875       7352.64        254785        349440
     0.010088       7619.13        276526        338838
    0.0100885       7851.51        292006        329184
     0.010089       8079.67        294871        318668
    0.0100895       8339.15        296076        306140
      0.01009          8628        302963        294386
    0.0100905       8955.38        313066        285065
     0.010091       9293.01        308699        276891
    0.0100915        9661.5        265634        269729
     0.010092       10061.6        259193        262857
    0.0100925       10485.8        254088        256865
     0.010093       10971.9        255886        251485
    0.0100935       11502.5        253968        246387
     0.010094         12033        250343        242169
    0.0100945         12457        248567        237827
     0.010095       12884.9        248928        232986
    0.0100955       13288.5        249744        230512
     0.010096       13600.9        249277        228572
    0.0100965       13808.5        253797        225120
     0.010097       13995.1        258317        221371
    0.0100975         14224        251595        219847
     0.010098       14453.4        242015        218523
    0.0100985       14729.8        239121        214541
     0.010099       14989.6        238336        211375
    0.0100995         15293        235653        210005
       0.0101       15526.5        229278        209412
