# Probe 0 (0 0.0048 -0.0055)
# Probe 1 (0 0.0085 -0.0055)
# Probe 2 (-0.0055 0.007 0)
#       Probe             0             1             2
#        Time
    0.0100005       11655.4        115703        149273
     0.010001       11658.9        115702        149277
    0.0100015       11662.2        115701        149281
     0.010002       11665.4        115699        149285
    0.0100025       11668.4        115697        149290
     0.010003       11671.4        115695        149295
    0.0100035       11674.3        115692        149300
     0.010004         11677        115689        149305
    0.0100045       11679.7        115685        149311
     0.010005       11682.4        115682        149317
    0.0100055       11684.8        115679        149325
     0.010006       11687.2        115676        149332
    0.0100065       11689.5        115672        149339
     0.010007       11691.7        115669        149345
    0.0100075       11693.6        115666        149352
     0.010008       11695.4        115663        149358
    0.0100085       11697.1        115660        149364
     0.010009       11698.5        115657        149370
    0.0100095       11699.7        115654        149376
      0.01001       11700.8        115652        149381
    0.0100105       11701.6        115649        149387
     0.010011       11702.2        115646        149393
    0.0100115       11702.7        115644        149399
     0.010012         11703        115641        149405
    0.0100125       11703.3        115638        149412
     0.010013       11703.4        115635        149420
    0.0100135       11703.4        115632        149427
     0.010014       11703.3        115629        149435
    0.0100145       11703.2        115626        149443
     0.010015       11702.9        115622        149452
    0.0100155       11702.6        115618        149461
     0.010016       11702.2        115614        149471
    0.0100165       11701.8        115610        149481
     0.010017       11701.3        115606        149491
    0.0100175       11700.7        115601        149501
     0.010018       11700.1        115597        149512
    0.0100185       11699.4        115592        149523
     0.010019       11698.7        115588        149535
    0.0100195         11698        115583        149546
      0.01002       11697.2        115579        149558
    0.0100205       11696.4        115574        149570
     0.010021       11695.6        115570        149583
    0.0100215       11694.7        115566        149595
     0.010022       11693.9        115562        149608
    0.0100225         11693        115558        149622
     0.010023       11692.1        115554        149635
    0.0100235       11691.2        115551        149649
     0.010024       11690.3        115548        149662
    0.0100245       11689.4        115547        149676
     0.010025       11688.5        115546        149691
    0.0100255       11687.6        115547        149705
     0.010026       11686.7        115550        149720
    0.0100265       11685.8        115555        149734
     0.010027       11684.9        115561        149749
    0.0100275       11683.9        115568        149764
     0.010028         11683        115577        149779
    0.0100285         11682        115587        149795
     0.010029       11681.1        115601        149810
    0.0100295       11680.2        115619        149825
      0.01003       11679.2        115643        149841
    0.0100305       11678.3        115669        149856
     0.010031       11677.3        115695        149871
    0.0100315       11676.4        115723        149886
     0.010032       11675.4        115755        149901
    0.0100325       11674.4        115791        149916
     0.010033       11673.5        115822        149931
    0.0100335       11672.5        115850        149945
     0.010034       11671.6        115872        149960
    0.0100345       11670.6        115891        149973
     0.010035       11669.7        115905        149987
    0.0100355       11668.7        115915        150000
     0.010036       11667.7        115924        150012
    0.0100365       11666.8        115931        150024
     0.010037       11665.8        115937        150036
    0.0100375       11664.8        115942        150047
     0.010038       11663.9        115943        150057
    0.0100385       11662.9        115941        150067
     0.010039         11662        115939        150076
    0.0100395         11661        115936        150084
      0.01004         11660        115933        150092
    0.0100405       11659.1        115930        150099
     0.010041       11658.1        115926        150106
    0.0100415       11657.2        115922        150111
     0.010042       11656.2        115918        150116
    0.0100425       11655.2        115914        150120
     0.010043       11654.3        115910        150124
    0.0100435       11653.3        115905        150127
     0.010044       11652.4        115901        150130
    0.0100445       11651.4        115896        150132
     0.010045       11650.5        115891        150134
    0.0100455       11649.5        115887        150135
     0.010046       11648.6        115882        150135
    0.0100465       11647.6        115877        150134
     0.010047       11646.7        115873        150133
    0.0100475       11645.7        115868        150131
     0.010048       11644.8        115864        150129
    0.0100485       11643.8        115859        150127
     0.010049       11642.9        115855        150124
    0.0100495       11641.9        115851        150121
      0.01005         11641        115847        150118
    0.0100505       11640.1        115843        150114
     0.010051       11639.1        115840        150110
    0.0100515       11638.2        115836        150106
     0.010052       11637.3        115832        150102
    0.0100525       11636.4        115829        150098
     0.010053       11635.4        115826        150094
    0.0100535       11634.5        115823        150090
     0.010054       11633.6        115820        150085
    0.0100545       11632.7        115817        150081
     0.010055       11631.7        115814        150078
    0.0100555       11630.8        115812        150074
     0.010056       11629.9        115809        150070
    0.0100565         11629        115806        150067
     0.010057       11628.1        115804        150064
    0.0100575       11627.2        115801        150061
     0.010058       11626.3        115799        150058
    0.0100585       11625.4        115796        150056
     0.010059       11624.5        115793        150055
    0.0100595       11623.6        115790        150053
      0.01006       11622.7        115787        150053
    0.0100605       11621.8        115784        150053
     0.010061       11620.9        115781        150054
    0.0100615         11620        115778        150055
     0.010062       11619.1        115775        150058
    0.0100625       11618.2        115772        150061
     0.010063       11617.3        115769        150065
    0.0100635       11616.4        115766        150070
     0.010064       11615.5        115762        150077
    0.0100645       11614.6        115759        150084
     0.010065       11613.7        115756        150093
    0.0100655       11612.8        115753        150102
     0.010066       11611.8        115750        150114
    0.0100665       11610.9        115747        150126
     0.010067         11610        115743        150140
    0.0100675       11609.1        115740        150156
     0.010068       11608.3        115738        150173
    0.0100685       11607.4        115735        150191
     0.010069       11606.5        115732        150210
    0.0100695       11605.6        115729        150230
      0.01007       11604.7        115726        150252
    0.0100705       11603.8        115723        150275
     0.010071       11602.9        115721        150300
    0.0100715       11602.1        115718        150325
     0.010072       11601.2        115716        150352
    0.0100725       11600.3        115713        150381
     0.010073       11599.5        115710        150410
    0.0100735       11598.6        115707        150440
     0.010074       11597.8        115704        150471
    0.0100745       11596.9        115701        150503
     0.010075         11596        115698        150536
    0.0100755       11595.2        115696        150570
     0.010076       11594.4        115693        150603
    0.0100765       11593.5        115691        150638
     0.010077       11592.7        115688        150672
    0.0100775       11591.9        115686        150707
     0.010078       11591.1        115685        150742
    0.0100785       11590.3        115683        150777
     0.010079       11589.5        115681        150812
    0.0100795       11588.7        115680        150847
      0.01008         11588        115679        150882
    0.0100805       11587.3        115678        150916
     0.010081       11586.6        115678        150950
    0.0100815       11585.9        115679        150983
     0.010082       11585.2        115681        151015
    0.0100825       11584.6        115684        151046
     0.010083         11584        115688        151077
    0.0100835       11583.5        115694        151106
     0.010084       11582.9        115704        151134
    0.0100845       11582.4        115715        151160
     0.010085       11581.9        115725        151186
    0.0100855       11581.4        115735        151211
     0.010086         11581        115744        151234
    0.0100865       11580.5        115755        151256
     0.010087       11580.1        115767        151276
    0.0100875       11579.7        115781        151296
     0.010088       11579.3        115796        151314
    0.0100885       11578.9        115814        151332
     0.010089       11578.6        115831        151348
    0.0100895       11578.3        115849        151363
      0.01009         11578        115867        151377
    0.0100905       11577.7        115887        151390
     0.010091       11577.5        115906        151403
    0.0100915       11577.3        115920        151414
     0.010092       11577.2        115935        151425
    0.0100925       11577.1        115948        151436
     0.010093         11577        115962        151445
    0.0100935         11577        115975        151455
     0.010094         11577        115989        151464
    0.0100945       11577.1        116002        151472
     0.010095       11577.2        116015        151480
    0.0100955       11577.4        116028        151488
     0.010096       11577.6        116041        151495
    0.0100965       11577.8        116054        151503
     0.010097       11578.1        116068        151510
    0.0100975       11578.3        116082        151516
     0.010098       11578.6        116094        151523
    0.0100985       11578.9        116106        151529
     0.010099       11579.3        116118        151535
    0.0100995       11579.6        116130        151541
       0.0101         11580        116141        151546
