# Probe 0 (0 0.0048 -0.0055)
# Probe 1 (0 0.0085 -0.0055)
# Probe 2 (-0.0055 0.007 0)
#       Probe             0             1             2
#        Time
    0.0100005             (5.69525 -6.05718 1.63416)             (18.9086 -17.674 -2.17759)             (-4.74797 2.35944 5.69634)
     0.010001             (5.75554 -5.89288 1.56881)             (18.9664 -17.2003 -2.22551)             (-4.86321 2.00323 5.6928)
    0.0100015             (5.81528 -5.73079 1.50535)             (19.0244 -16.7191 -2.29175)             (-4.98612 1.65399 5.68067)
     0.010002             (5.87572 -5.57427 1.44319)             (19.0833 -16.2349 -2.37515)             (-5.11459 1.31162 5.66219)
    0.0100025             (5.937 -5.41937 1.38051)             (19.1409 -15.749 -2.47009)             (-5.24955 0.973661 5.6358)
     0.010003             (5.99854 -5.26497 1.31926)             (19.1997 -15.2655 -2.57541)             (-5.38931 0.64162 5.59912)
    0.0100035             (6.06027 -5.11365 1.26079)             (19.2635 -14.7897 -2.69405)             (-5.52982 0.32008 5.55109)
     0.010004             (6.1222 -4.9668 1.20449)             (19.3279 -14.3185 -2.81955)             (-5.67177 0.0111072 5.49139)
    0.0100045             (6.18295 -4.82108 1.14953)             (19.3896 -13.8503 -2.94631)             (-5.81493 -0.289171 5.41808)
     0.010005             (6.24342 -4.67941 1.09723)             (19.4475 -13.3856 -3.07223)             (-5.96037 -0.584654 5.33149)
    0.0100055             (6.30416 -4.54363 1.04964)             (19.5006 -12.9239 -3.19598)             (-6.10946 -0.872735 5.23161)
     0.010006             (6.36508 -4.41195 1.00574)             (19.5491 -12.4642 -3.31592)             (-6.2576 -1.14473 5.12443)
    0.0100065             (6.42539 -4.28502 0.96666)             (19.5935 -12.0107 -3.4324)             (-6.39469 -1.39978 5.01296)
     0.010007             (6.48502 -4.16483 0.934359)             (19.6316 -11.5667 -3.54481)             (-6.51345 -1.64835 4.89961)
    0.0100075             (6.54359 -4.05139 0.909512)             (19.6631 -11.1343 -3.65232)             (-6.6137 -1.89245 4.78429)
     0.010008             (6.60082 -3.94314 0.891155)             (19.6867 -10.7145 -3.75441)             (-6.69625 -2.12464 4.66349)
    0.0100085             (6.65819 -3.84096 0.879578)             (19.7018 -10.3088 -3.85077)             (-6.76289 -2.34106 4.53904)
     0.010009             (6.71613 -3.7474 0.872643)             (19.7061 -9.91645 -3.94126)             (-6.81364 -2.5442 4.41389)
    0.0100095             (6.77475 -3.66153 0.871929)             (19.6987 -9.53867 -4.02647)             (-6.84518 -2.73602 4.28991)
      0.01001             (6.83445 -3.58411 0.879962)             (19.681 -9.18022 -4.11038)             (-6.85866 -2.92035 4.16658)
    0.0100105             (6.89566 -3.51473 0.894974)             (19.6549 -8.84409 -4.19648)             (-6.85839 -3.09823 4.04447)
     0.010011             (6.95875 -3.45288 0.916242)             (19.6206 -8.52855 -4.28327)             (-6.84659 -3.26807 3.92312)
    0.0100115             (7.02289 -3.39713 0.942551)             (19.5776 -8.23016 -4.36779)             (-6.82341 -3.43166 3.80167)
     0.010012             (7.08698 -3.34614 0.972445)             (19.5288 -7.94996 -4.45189)             (-6.78875 -3.59225 3.68086)
    0.0100125             (7.15193 -3.301 1.00455)             (19.4781 -7.69113 -4.53882)             (-6.7415 -3.75205 3.56149)
     0.010013             (7.21755 -3.26278 1.03837)             (19.4252 -7.45165 -4.62746)             (-6.68249 -3.91088 3.44367)
    0.0100135             (7.28361 -3.23099 1.07471)             (19.3706 -7.22956 -4.71497)             (-6.6123 -4.06949 3.32862)
     0.010014             (7.34941 -3.20446 1.11361)             (19.3129 -7.02499 -4.8004)             (-6.53258 -4.22821 3.21678)
    0.0100145             (7.41458 -3.18243 1.15561)             (19.2539 -6.83785 -4.88556)             (-6.44305 -4.38728 3.10821)
     0.010015             (7.47864 -3.16484 1.20084)             (19.1936 -6.66847 -4.97337)             (-6.34416 -4.549 3.00292)
    0.0100155             (7.54126 -3.1511 1.24885)             (19.1342 -6.51735 -5.06739)             (-6.23635 -4.7131 2.89875)
     0.010016             (7.60267 -3.14171 1.29957)             (19.0751 -6.38341 -5.16932)             (-6.11854 -4.87914 2.79887)
    0.0100165             (7.66277 -3.13637 1.35324)             (19.0167 -6.26558 -5.28078)             (-5.99276 -5.04764 2.70445)
     0.010017             (7.72142 -3.13467 1.40958)             (18.9596 -6.16236 -5.40216)             (-5.85799 -5.21833 2.61486)
    0.0100175             (7.7786 -3.13611 1.46797)             (18.9034 -6.07126 -5.53287)             (-5.71604 -5.39148 2.52951)
     0.010018             (7.83447 -3.14043 1.52746)             (18.8487 -5.99033 -5.67226)             (-5.5674 -5.56653 2.44869)
    0.0100185             (7.88924 -3.14767 1.58699)             (18.7967 -5.91939 -5.81901)             (-5.41196 -5.7453 2.37167)
     0.010019             (7.9431 -3.15782 1.64561)             (18.7486 -5.85737 -5.97127)             (-5.24922 -5.92596 2.29882)
    0.0100195             (7.99602 -3.1704 1.70275)             (18.7051 -5.80295 -6.12843)             (-5.08144 -6.10679 2.23101)
      0.01002             (8.048 -3.18494 1.75826)             (18.6661 -5.75564 -6.28829)             (-4.90804 -6.28823 2.16762)
    0.0100205             (8.09901 -3.20138 1.81215)             (18.6306 -5.71613 -6.44793)             (-4.72937 -6.46997 2.10917)
     0.010021             (8.14892 -3.21943 1.86435)             (18.599 -5.68714 -6.60548)             (-4.54535 -6.65205 2.0553)
    0.0100215             (8.19747 -3.23866 1.91481)             (18.5707 -5.66845 -6.75868)             (-4.35693 -6.83389 2.00632)
     0.010022             (8.24451 -3.25901 1.96388)             (18.5432 -5.65846 -6.90555)             (-4.16365 -7.01415 1.96237)
    0.0100225             (8.29002 -3.28052 2.0116)             (18.5139 -5.65753 -7.04571)             (-3.96587 -7.19292 1.92292)
     0.010023             (8.33402 -3.30348 2.05787)             (18.4773 -5.66507 -7.1781)             (-3.76323 -7.36989 1.88876)
    0.0100235             (8.37654 -3.32789 2.10273)             (18.4252 -5.67837 -7.30418)             (-3.55754 -7.54532 1.85928)
     0.010024             (8.41752 -3.35341 2.1463)             (18.3459 -5.69084 -7.42339)             (-3.34741 -7.71907 1.83267)
    0.0100245             (8.45679 -3.37959 2.18883)             (18.2218 -5.69896 -7.54646)             (-3.13226 -7.89059 1.8109)
     0.010025             (8.49429 -3.40608 2.23055)             (18.0362 -5.70037 -7.69045)             (-2.91334 -8.05808 1.79358)
    0.0100255             (8.52992 -3.43265 2.27164)             (17.7602 -5.68236 -7.86531)             (-2.69059 -8.22282 1.78131)
     0.010026             (8.56366 -3.45917 2.31218)             (17.3489 -5.62201 -8.0895)             (-2.46515 -8.38581 1.77318)
    0.0100265             (8.5956 -3.48565 2.3521)             (16.8233 -5.53231 -8.3692)             (-2.23645 -8.5446 1.77139)
     0.010027             (8.62584 -3.51261 2.3914)             (16.2697 -5.43943 -8.66407)             (-2.00534 -8.69816 1.77496)
    0.0100275             (8.65448 -3.54032 2.4301)             (15.6972 -5.30861 -8.96305)             (-1.77125 -8.84818 1.78366)
     0.010028             (8.68144 -3.56858 2.46826)             (15.0854 -5.09134 -9.32438)             (-1.53494 -8.99425 1.79791)
    0.0100285             (8.70661 -3.59712 2.50576)             (14.424 -4.72378 -9.82138)             (-1.29606 -9.13654 1.81713)
     0.010029             (8.73006 -3.62602 2.54261)             (13.7321 -4.14989 -10.5441)             (-1.05621 -9.27453 1.84024)
    0.0100295             (8.75186 -3.65539 2.57907)             (13.0637 -3.35907 -11.554)             (-0.815252 -9.40906 1.8683)
      0.01003             (8.772 -3.68517 2.61504)             (12.4638 -2.422 -12.7279)             (-0.573726 -9.53905 1.90128)
    0.0100305             (8.79058 -3.71536 2.65044)             (11.9175 -1.54331 -13.8459)             (-0.331983 -9.6662 1.94121)
     0.010031             (8.80761 -3.74583 2.68521)             (11.4299 -0.840351 -14.8624)             (-0.0912073 -9.79033 1.98634)
    0.0100315             (8.82308 -3.77634 2.71936)             (11.1133 -0.207401 -15.7256)             (0.146946 -9.90994 2.03697)
     0.010032             (8.837 -3.80669 2.75299)             (11.1123 0.43727 -16.3508)             (0.382792 -10.0262 2.09283)
    0.0100325             (8.8494 -3.83672 2.78606)             (11.4346 0.881356 -16.5719)             (0.615015 -10.1393 2.15283)
     0.010033             (8.86034 -3.86636 2.81857)             (11.8555 0.846745 -16.3963)             (0.843155 -10.2493 2.21745)
    0.0100335             (8.86988 -3.8956 2.85046)             (12.2133 0.367227 -15.9644)             (1.06559 -10.3565 2.28662)
     0.010034             (8.87809 -3.92441 2.88172)             (12.5159 -0.369676 -15.5268)             (1.2823 -10.4598 2.3603)
    0.0100345             (8.88501 -3.95277 2.91236)             (12.8377 -1.22224 -15.082)             (1.49179 -10.5584 2.43717)
     0.010035             (8.89068 -3.98057 2.94249)             (13.204 -1.96028 -14.6713)             (1.69521 -10.6528 2.51768)
    0.0100355             (8.89513 -4.00775 2.97201)             (13.617 -2.63367 -14.2662)             (1.88697 -10.7431 2.60233)
     0.010036             (8.89844 -4.0342 3.00094)             (14.0211 -3.33943 -13.8443)             (2.07034 -10.8297 2.69031)
    0.0100365             (8.90066 -4.05991 3.02933)             (14.3857 -4.0801 -13.4154)             (2.24172 -10.9122 2.78015)
     0.010037             (8.90186 -4.08483 3.05719)             (14.7371 -4.87409 -12.9692)             (2.40077 -10.991 2.87194)
    0.0100375             (8.90203 -4.10873 3.0846)             (15.0288 -5.67236 -12.5272)             (2.54936 -11.0665 2.96496)
     0.010038             (8.90117 -4.1314 3.11156)             (15.2315 -6.42585 -12.1007)             (2.68498 -11.1385 3.05898)
    0.0100385             (8.89947 -4.15309 3.13773)             (15.3625 -7.13046 -11.6839)             (2.80794 -11.2065 3.15323)
     0.010039             (8.89725 -4.17434 3.16266)             (15.4627 -7.81623 -11.2727)             (2.91657 -11.2709 3.24659)
    0.0100395             (8.89471 -4.19523 3.18638)             (15.548 -8.48968 -10.8678)             (3.01095 -11.3316 3.33819)
      0.01004             (8.8919 -4.21555 3.20912)             (15.6199 -9.14835 -10.4745)             (3.09045 -11.3891 3.42901)
    0.0100405             (8.88889 -4.23513 3.231)             (15.6684 -9.78447 -10.0966)             (3.15455 -11.4446 3.51689)
     0.010041             (8.88574 -4.25383 3.25203)             (15.6867 -10.3958 -9.73925)             (3.20431 -11.4978 3.60166)
    0.0100415             (8.88258 -4.27157 3.27219)             (15.6842 -10.979 -9.4032)             (3.23914 -11.5494 3.68135)
     0.010042             (8.8795 -4.28825 3.29149)             (15.6687 -11.5344 -9.08812)             (3.25901 -11.5984 3.75652)
    0.0100425             (8.87663 -4.30378 3.30993)             (15.6423 -12.0625 -8.79494)             (3.26385 -11.6462 3.82635)
     0.010043             (8.87413 -4.31807 3.32754)             (15.604 -12.5615 -8.52671)             (3.25414 -11.6935 3.88999)
    0.0100435             (8.87217 -4.33104 3.34428)             (15.5513 -13.028 -8.28502)             (3.23108 -11.7413 3.94617)
     0.010044             (8.87097 -4.34268 3.36009)             (15.4863 -13.4593 -8.06901)             (3.19661 -11.7902 3.99251)
    0.0100445             (8.87079 -4.35288 3.37486)             (15.4128 -13.8556 -7.87846)             (3.15051 -11.8391 4.02923)
     0.010045             (8.87192 -4.36152 3.38845)             (15.3337 -14.2178 -7.71307)             (3.08999 -11.8861 4.05936)
    0.0100455             (8.87468 -4.36855 3.40068)             (15.2519 -14.5462 -7.57193)             (3.0129 -11.9281 4.08644)
     0.010046             (8.87944 -4.37403 3.41156)             (15.1694 -14.8388 -7.45298)             (2.9196 -11.9675 4.10832)
    0.0100465             (8.88653 -4.37787 3.4211)             (15.0875 -15.0961 -7.35477)             (2.81181 -12.0046 4.12337)
     0.010047             (8.89633 -4.38003 3.42928)             (15.0072 -15.318 -7.27656)             (2.69078 -12.0402 4.13125)
    0.0100475             (8.90925 -4.3806 3.43609)             (14.9295 -15.5054 -7.21691)             (2.55736 -12.0741 4.13175)
     0.010048             (8.92567 -4.3798 3.44164)             (14.855 -15.6585 -7.17426)             (2.41162 -12.1057 4.12437)
    0.0100485             (8.94582 -4.37755 3.44611)             (14.7839 -15.7789 -7.14712)             (2.25491 -12.136 4.10881)
     0.010049             (8.96997 -4.37392 3.44961)             (14.7158 -15.8679 -7.13382)             (2.08732 -12.1639 4.08475)
    0.0100495             (8.9983 -4.36916 3.45213)             (14.6504 -15.9277 -7.13295)             (1.90931 -12.1903 4.05191)
      0.01005             (9.03076 -4.36316 3.45361)             (14.5874 -15.9604 -7.14332)             (1.72171 -12.2158 4.01104)
    0.0100505             (9.06731 -4.35608 3.45382)             (14.526 -15.9686 -7.16385)             (1.52391 -12.2382 3.96258)
     0.010051             (9.10792 -4.34802 3.45237)             (14.4645 -15.9534 -7.19297)             (1.31502 -12.258 3.90638)
    0.0100515             (9.15257 -4.33918 3.44872)             (14.4 -15.9165 -7.22911)             (1.0972 -12.275 3.8415)
     0.010052             (9.20125 -4.32978 3.44239)             (14.3307 -15.8606 -7.27125)             (0.870606 -12.2897 3.76891)
    0.0100525             (9.25395 -4.32006 3.43324)             (14.2549 -15.7869 -7.31806)             (0.634791 -12.3008 3.68828)
     0.010053             (9.31068 -4.31028 3.42136)             (14.1729 -15.6964 -7.36842)             (0.39001 -12.3078 3.6008)
    0.0100535             (9.37144 -4.30063 3.40713)             (14.084 -15.5892 -7.42143)             (0.136711 -12.3113 3.50617)
     0.010054             (9.43627 -4.29117 3.39109)             (13.9867 -15.4651 -7.47659)             (-0.127349 -12.3111 3.4066)
    0.0100545             (9.50521 -4.28197 3.37362)             (13.8796 -15.3251 -7.5322)             (-0.401616 -12.3061 3.30328)
     0.010055             (9.57833 -4.27323 3.35458)             (13.763 -15.1723 -7.58679)             (-0.68261 -12.2972 3.19722)
    0.0100555             (9.65565 -4.26521 3.33342)             (13.6383 -15.0128 -7.63893)             (-0.972085 -12.2824 3.09009)
     0.010056             (9.73727 -4.25801 3.30916)             (13.5064 -14.85 -7.6872)             (-1.26992 -12.2618 2.98416)
    0.0100565             (9.82336 -4.25155 3.28056)             (13.3673 -14.6853 -7.73012)             (-1.57699 -12.2333 2.88144)
     0.010057             (9.9137 -4.2462 3.24685)             (13.2209 -14.5199 -7.76751)             (-1.8918 -12.197 2.78218)
    0.0100575             (10.008 -4.24209 3.20787)             (13.0678 -14.3546 -7.7991)             (-2.21386 -12.1509 2.68882)
     0.010058             (10.106 -4.23939 3.16381)             (12.9105 -14.1916 -7.82521)             (-2.54223 -12.0954 2.60318)
    0.0100585             (10.2072 -4.23776 3.11491)             (12.7502 -14.0319 -7.84571)             (-2.8763 -12.0284 2.52771)
     0.010059             (10.3117 -4.23712 3.0608)             (12.5874 -13.8765 -7.8601)             (-3.21651 -11.9486 2.46584)
    0.0100595             (10.4192 -4.23736 3.00128)             (12.4237 -13.726 -7.8678)             (-3.56015 -11.854 2.42064)
      0.01006             (10.5294 -4.23846 2.93614)             (12.2596 -13.5806 -7.86861)             (-3.90566 -11.7431 2.39465)
    0.0100605             (10.642 -4.24059 2.86435)             (12.0942 -13.4396 -7.86253)             (-4.24963 -11.6169 2.38685)
     0.010061             (10.7565 -4.24351 2.78599)             (11.9277 -13.3023 -7.84948)             (-4.59177 -11.4738 2.39845)
    0.0100615             (10.8725 -4.24698 2.70179)             (11.7607 -13.169 -7.82957)             (-4.93059 -11.3112 2.4323)
     0.010062             (10.9896 -4.25083 2.61147)             (11.5939 -13.0401 -7.8029)             (-5.26393 -11.1274 2.49033)
    0.0100625             (11.1073 -4.25494 2.51452)             (11.428 -12.9154 -7.76971)             (-5.59133 -10.9209 2.57277)
     0.010063             (11.2254 -4.25888 2.41204)             (11.2632 -12.7947 -7.73054)             (-5.90971 -10.6933 2.67878)
    0.0100635             (11.3431 -4.26248 2.30503)             (11.0997 -12.6769 -7.68567)             (-6.21802 -10.4451 2.80836)
     0.010064             (11.4603 -4.26533 2.19359)             (10.9384 -12.5623 -7.63514)             (-6.51283 -10.1738 2.96028)
    0.0100645             (11.5771 -4.26712 2.07773)             (10.78 -12.4508 -7.57871)             (-6.79208 -9.87857 3.1318)
     0.010065             (11.6932 -4.2675 1.95761)             (10.6253 -12.3424 -7.51648)             (-7.05386 -9.56065 3.32171)
    0.0100655             (11.8083 -4.26605 1.83376)             (10.4739 -12.2362 -7.4495)             (-7.29619 -9.21953 3.53145)
     0.010066             (11.9223 -4.26213 1.70698)             (10.325 -12.1313 -7.37945)             (-7.51807 -8.85628 3.76005)
    0.0100665             (12.0352 -4.2553 1.57769)             (10.1786 -12.0268 -7.30728)             (-7.71848 -8.47127 4.00186)
     0.010067             (12.1469 -4.24532 1.44574)             (10.0362 -11.923 -7.23266)             (-7.89717 -8.06489 4.25337)
    0.0100675             (12.2574 -4.23212 1.31109)             (9.89849 -11.8205 -7.15553)             (-8.05381 -7.63733 4.51111)
     0.010068             (12.3662 -4.21575 1.17434)             (9.76463 -11.7181 -7.07735)             (-8.18686 -7.19003 4.77357)
    0.0100685             (12.4732 -4.196 1.03627)             (9.63513 -11.6164 -6.99792)             (-8.29371 -6.72579 5.03825)
     0.010069             (12.5782 -4.17224 0.897917)             (9.51062 -11.5159 -6.9169)             (-8.37454 -6.24475 5.30134)
    0.0100695             (12.6808 -4.14398 0.759567)             (9.39113 -11.4164 -6.83438)             (-8.43178 -5.74854 5.55714)
      0.01007             (12.7812 -4.11112 0.621215)             (9.27709 -11.3182 -6.74966)             (-8.46374 -5.24205 5.80669)
    0.0100705             (12.8797 -4.07362 0.482854)             (9.16832 -11.2218 -6.66284)             (-8.45675 -4.72964 6.05328)
     0.010071             (12.9766 -4.03136 0.344771)             (9.06414 -11.1272 -6.57489)             (-8.41864 -4.21488 6.29825)
    0.0100715             (13.0712 -3.9841 0.20753)             (8.96329 -11.0335 -6.48826)             (-8.34524 -3.69854 6.53399)
     0.010072             (13.1638 -3.93253 0.0698782)             (8.86472 -10.9398 -6.40485)             (-8.23418 -3.17764 6.75679)
    0.0100725             (13.254 -3.87691 -0.068677)             (8.77251 -10.8468 -6.31634)             (-8.09507 -2.65769 6.96738)
     0.010073             (13.3419 -3.81723 -0.207235)             (8.6892 -10.7591 -6.21496)             (-7.93522 -2.13609 7.16162)
    0.0100735             (13.4277 -3.75303 -0.345961)             (8.6095 -10.6778 -6.11015)             (-7.75482 -1.61558 7.34031)
     0.010074             (13.5114 -3.68505 -0.48482)             (8.53338 -10.599 -6.00476)             (-7.5445 -1.09931 7.4935)
    0.0100745             (13.5927 -3.61335 -0.623895)             (8.45963 -10.5222 -5.9011)             (-7.3109 -0.593211 7.62657)
     0.010075             (13.6712 -3.53791 -0.762545)             (8.38768 -10.4467 -5.8002)             (-7.05597 -0.0909396 7.73965)
    0.0100755             (13.7466 -3.45835 -0.900094)             (8.31705 -10.3728 -5.70201)             (-6.78872 0.399197 7.83476)
     0.010076             (13.8188 -3.37465 -1.03636)             (8.24712 -10.3009 -5.60636)             (-6.5057 0.878731 7.90876)
    0.0100765             (13.8876 -3.28712 -1.17148)             (8.17666 -10.2309 -5.51373)             (-6.20878 1.34891 7.96235)
     0.010077             (13.953 -3.19588 -1.30559)             (8.10458 -10.1624 -5.42478)             (-5.90313 1.80699 7.99129)
    0.0100775             (14.0145 -3.10034 -1.43672)             (8.03088 -10.0947 -5.34027)             (-5.59301 2.25415 7.99505)
     0.010078             (14.0725 -3.0007 -1.56483)             (7.95764 -10.028 -5.26046)             (-5.28132 2.68849 7.97564)
    0.0100785             (14.1267 -2.89723 -1.69072)             (7.88839 -9.96185 -5.18559)             (-4.97342 3.10836 7.93255)
     0.010079             (14.1773 -2.78978 -1.81403)             (7.82422 -9.89618 -5.11647)             (-4.67471 3.51114 7.86505)
    0.0100795             (14.2251 -2.67804 -1.93452)             (7.76502 -9.83046 -5.05275)             (-4.38626 3.89403 7.77082)
      0.01008             (14.2705 -2.56155 -2.0519)             (7.70896 -9.76458 -4.99518)             (-4.10906 4.25198 7.65615)
    0.0100805             (14.3139 -2.43989 -2.16673)             (7.65319 -9.69866 -4.94592)             (-3.84629 4.58279 7.51979)
     0.010081             (14.3555 -2.31372 -2.27915)             (7.59533 -9.63332 -4.90914)             (-3.59886 4.88397 7.36919)
    0.0100815             (14.3951 -2.18293 -2.38968)             (7.53765 -9.56664 -4.88893)             (-3.36723 5.15339 7.21105)
     0.010082             (14.4327 -2.04796 -2.49851)             (7.48972 -9.4926 -4.88875)             (-3.15126 5.38549 7.04852)
    0.0100825             (14.4677 -1.90925 -2.60525)             (7.46789 -9.40014 -4.90449)             (-2.95176 5.5751 6.88373)
     0.010083             (14.4999 -1.76745 -2.71008)             (7.47875 -9.27722 -4.93232)             (-2.76872 5.72152 6.72053)
    0.0100835             (14.5295 -1.62261 -2.8135)             (7.53074 -9.11285 -4.98636)             (-2.601 5.82527 6.56224)
     0.010084             (14.5566 -1.47517 -2.91601)             (7.636 -8.89045 -5.08742)             (-2.44685 5.88327 6.41003)
    0.0100845             (14.5799 -1.32698 -3.01726)             (7.7585 -8.64005 -5.19311)             (-2.31092 5.89767 6.26635)
     0.010085             (14.5994 -1.17878 -3.11886)             (7.84098 -8.41982 -5.25571)             (-2.19906 5.86977 6.13497)
    0.0100855             (14.615 -1.03094 -3.2202)             (7.89125 -8.23936 -5.27773)             (-2.11098 5.80107 6.01692)
     0.010086             (14.6264 -0.883701 -3.32056)             (7.92681 -8.08379 -5.27852)             (-2.03913 5.69468 5.91687)
    0.0100865             (14.6335 -0.737301 -3.41952)             (7.95861 -7.94624 -5.27397)             (-1.97872 5.55269 5.83696)
     0.010087             (14.6361 -0.591703 -3.51653)             (7.99725 -7.82977 -5.27358)             (-1.93139 5.37834 5.77687)
    0.0100875             (14.6343 -0.446917 -3.61149)             (8.05874 -7.73863 -5.28735)             (-1.89461 5.1726 5.7366)
     0.010088             (14.6286 -0.303003 -3.70353)             (8.15223 -7.67829 -5.32015)             (-1.86774 4.93965 5.7127)
    0.0100885             (14.6187 -0.15944 -3.79236)             (8.27019 -7.64681 -5.34986)             (-1.84707 4.685 5.70301)
     0.010089             (14.6046 -0.0171515 -3.87533)             (8.40069 -7.64014 -5.34539)             (-1.83204 4.41597 5.7045)
    0.0100895             (14.5864 0.124428 -3.95415)             (8.55393 -7.66318 -5.32081)             (-1.821 4.13945 5.71745)
      0.01009             (14.5644 0.265489 -4.02876)             (8.73595 -7.71507 -5.29432)             (-1.81482 3.85815 5.73965)
    0.0100905             (14.5391 0.406573 -4.09953)             (8.94141 -7.79337 -5.27351)             (-1.81052 3.57198 5.76696)
     0.010091             (14.5104 0.548 -4.16705)             (9.15229 -7.87147 -5.23135)             (-1.8056 3.28027 5.79828)
    0.0100915             (14.4785 0.690404 -4.23206)             (9.34602 -7.89146 -5.11916)             (-1.79866 2.98381 5.83007)
     0.010092             (14.4438 0.83331 -4.29474)             (9.52214 -7.89448 -4.9785)             (-1.79052 2.68544 5.86279)
    0.0100925             (14.4062 0.976359 -4.35475)             (9.70021 -7.88936 -4.8069)             (-1.77974 2.38422 5.89313)
     0.010093             (14.366 1.11999 -4.41326)             (9.88695 -7.88895 -4.62723)             (-1.76516 2.07869 5.91822)
    0.0100935             (14.3234 1.26456 -4.47039)             (10.0849 -7.8906 -4.44632)             (-1.74426 1.76733 5.93352)
     0.010094             (14.278 1.4098 -4.52555)             (10.2892 -7.89078 -4.26416)             (-1.71838 1.45082 5.93381)
    0.0100945             (14.2298 1.555 -4.57848)             (10.4995 -7.8893 -4.09144)             (-1.68834 1.13071 5.91874)
     0.010095             (14.1784 1.69872 -4.62851)             (10.7141 -7.88631 -3.9302)             (-1.654 0.807007 5.89018)
    0.0100955             (14.1239 1.8408 -4.67623)             (10.9264 -7.88321 -3.78017)             (-1.61761 0.478668 5.84363)
     0.010096             (14.0663 1.98093 -4.72204)             (11.1286 -7.88187 -3.64362)             (-1.58044 0.147265 5.77604)
    0.0100965             (14.0055 2.11897 -4.76686)             (11.3296 -7.8851 -3.50713)             (-1.54329 -0.181991 5.68914)
     0.010097             (13.9416 2.25493 -4.81161)             (11.5341 -7.89008 -3.36821)             (-1.50713 -0.50668 5.57939)
    0.0100975             (13.8746 2.38903 -4.85626)             (11.7324 -7.88809 -3.24854)             (-1.47206 -0.832999 5.44541)
     0.010098             (13.8045 2.52068 -4.90053)             (11.9244 -7.87605 -3.14638)             (-1.43748 -1.15928 5.28549)
    0.0100985             (13.7316 2.6502 -4.94387)             (12.1162 -7.86248 -3.05202)             (-1.40798 -1.48583 5.09297)
     0.010099             (13.6556 2.77645 -4.98573)             (12.3072 -7.84916 -2.9645)             (-1.38347 -1.80735 4.86635)
    0.0100995             (13.5768 2.90024 -5.02614)             (12.494 -7.83546 -2.88562)             (-1.36386 -2.12698 4.60518)
       0.0101             (13.495 3.02032 -5.06476)             (12.6775 -7.81743 -2.81811)             (-1.35062 -2.44081 4.30622)
