# Probe 0 (0 0.0048 -0.0055)
# Probe 1 (0 0.0085 -0.0055)
# Probe 2 (-0.0055 0.007 0)
#       Probe             0             1             2
#        Time
    0.0100005             (1.85406 1.90321 0.398466)             (-3.48306 -14.6137 -9.26249)             (-10.6751 -5.00923 0.271012)
     0.010001             (1.85445 1.90243 0.398583)             (-3.48082 -14.614 -9.26179)             (-10.6745 -5.00853 0.271554)
    0.0100015             (1.85485 1.90166 0.398693)             (-3.47857 -14.6142 -9.26109)             (-10.674 -5.00786 0.272094)
     0.010002             (1.85525 1.90092 0.398798)             (-3.47631 -14.6143 -9.2604)             (-10.6734 -5.00723 0.272633)
    0.0100025             (1.85566 1.90018 0.398896)             (-3.47405 -14.6144 -9.25973)             (-10.6729 -5.00663 0.273169)
     0.010003             (1.85607 1.89947 0.398988)             (-3.47179 -14.6145 -9.25906)             (-10.6723 -5.00607 0.273701)
    0.0100035             (1.85649 1.89877 0.399074)             (-3.46952 -14.6145 -9.2584)             (-10.6718 -5.00554 0.274229)
     0.010004             (1.85692 1.89808 0.399154)             (-3.46724 -14.6145 -9.25776)             (-10.6713 -5.00503 0.27475)
    0.0100045             (1.85735 1.89741 0.399229)             (-3.46495 -14.6144 -9.25713)             (-10.6708 -5.00456 0.275264)
     0.010005             (1.85779 1.89675 0.399299)             (-3.46266 -14.6143 -9.25651)             (-10.6704 -5.00412 0.275769)
    0.0100055             (1.85823 1.89611 0.399364)             (-3.46037 -14.6141 -9.2559)             (-10.6699 -5.00371 0.276264)
     0.010006             (1.85868 1.89548 0.399425)             (-3.45807 -14.6139 -9.25531)             (-10.6695 -5.00332 0.276748)
    0.0100065             (1.85914 1.89486 0.399481)             (-3.45577 -14.6136 -9.25473)             (-10.669 -5.00296 0.277221)
     0.010007             (1.8596 1.89426 0.399535)             (-3.45347 -14.6133 -9.25416)             (-10.6686 -5.00263 0.277683)
    0.0100075             (1.86007 1.89366 0.399586)             (-3.45116 -14.613 -9.2536)             (-10.6682 -5.00232 0.278133)
     0.010008             (1.86054 1.89308 0.399635)             (-3.44885 -14.6126 -9.25305)             (-10.6678 -5.00203 0.278571)
    0.0100085             (1.86102 1.89251 0.399683)             (-3.44654 -14.6122 -9.25251)             (-10.6674 -5.00177 0.278996)
     0.010009             (1.86151 1.89194 0.39973)             (-3.44422 -14.6117 -9.25198)             (-10.667 -5.00152 0.279409)
    0.0100095             (1.862 1.89139 0.399777)             (-3.44191 -14.6112 -9.25146)             (-10.6667 -5.00129 0.279809)
      0.01001             (1.86249 1.89084 0.399825)             (-3.43961 -14.6107 -9.25095)             (-10.6663 -5.00109 0.280197)
    0.0100105             (1.863 1.8903 0.399874)             (-3.4373 -14.6101 -9.25044)             (-10.6659 -5.0009 0.280573)
     0.010011             (1.8635 1.88977 0.399926)             (-3.435 -14.6095 -9.24995)             (-10.6655 -5.00072 0.280936)
    0.0100115             (1.86402 1.88924 0.39998)             (-3.43271 -14.6088 -9.24946)             (-10.6651 -5.00057 0.281287)
     0.010012             (1.86454 1.88872 0.400037)             (-3.43042 -14.6082 -9.24898)             (-10.6648 -5.00043 0.281627)
    0.0100125             (1.86507 1.8882 0.400097)             (-3.42813 -14.6075 -9.24851)             (-10.6644 -5.0003 0.281954)
     0.010013             (1.8656 1.88769 0.400161)             (-3.42585 -14.6068 -9.24805)             (-10.664 -5.00019 0.282269)
    0.0100135             (1.86614 1.88718 0.400228)             (-3.42358 -14.606 -9.2476)             (-10.6636 -5.0001 0.282573)
     0.010014             (1.86669 1.88667 0.400299)             (-3.42131 -14.6053 -9.24716)             (-10.6632 -5.00002 0.282866)
    0.0100145             (1.86724 1.88617 0.400375)             (-3.41905 -14.6045 -9.24672)             (-10.6627 -4.99996 0.283147)
     0.010015             (1.8678 1.88566 0.400454)             (-3.41679 -14.6037 -9.24629)             (-10.6623 -4.99992 0.283418)
    0.0100155             (1.86837 1.88516 0.400539)             (-3.41455 -14.6029 -9.24588)             (-10.6619 -4.99989 0.283679)
     0.010016             (1.86894 1.88466 0.400629)             (-3.4123 -14.6021 -9.24547)             (-10.6614 -4.99988 0.28393)
    0.0100165             (1.86952 1.88416 0.400724)             (-3.41007 -14.6013 -9.24508)             (-10.6609 -4.99988 0.284171)
     0.010017             (1.8701 1.88366 0.400824)             (-3.40784 -14.6004 -9.24469)             (-10.6605 -4.9999 0.284403)
    0.0100175             (1.87069 1.88316 0.40093)             (-3.40562 -14.5996 -9.24432)             (-10.66 -4.99994 0.284627)
     0.010018             (1.87128 1.88266 0.401043)             (-3.4034 -14.5987 -9.24397)             (-10.6595 -5 0.284843)
    0.0100185             (1.87188 1.88216 0.401161)             (-3.40119 -14.5978 -9.24363)             (-10.6589 -5.00007 0.285051)
     0.010019             (1.87249 1.88166 0.401285)             (-3.39898 -14.597 -9.2433)             (-10.6584 -5.00017 0.285251)
    0.0100195             (1.8731 1.88115 0.401414)             (-3.39678 -14.5961 -9.24299)             (-10.6578 -5.00028 0.285445)
      0.01002             (1.87371 1.88065 0.40155)             (-3.39458 -14.5952 -9.2427)             (-10.6573 -5.0004 0.285633)
    0.0100205             (1.87433 1.88014 0.40169)             (-3.39239 -14.5943 -9.24242)             (-10.6567 -5.00055 0.285814)
     0.010021             (1.87496 1.87963 0.401836)             (-3.3902 -14.5934 -9.24215)             (-10.6561 -5.00071 0.28599)
    0.0100215             (1.87559 1.87912 0.401986)             (-3.38801 -14.5926 -9.24191)             (-10.6554 -5.0009 0.286162)
     0.010022             (1.87622 1.87861 0.402142)             (-3.38583 -14.5917 -9.24167)             (-10.6548 -5.0011 0.286329)
    0.0100225             (1.87686 1.8781 0.402302)             (-3.38365 -14.5908 -9.24146)             (-10.6541 -5.00132 0.286491)
     0.010023             (1.8775 1.87758 0.402467)             (-3.38147 -14.5899 -9.24125)             (-10.6534 -5.00155 0.286651)
    0.0100235             (1.87815 1.87706 0.402636)             (-3.3793 -14.589 -9.24106)             (-10.6527 -5.0018 0.286808)
     0.010024             (1.8788 1.87654 0.40281)             (-3.37714 -14.5881 -9.24088)             (-10.652 -5.00208 0.286961)
    0.0100245             (1.87945 1.87602 0.402987)             (-3.37499 -14.5872 -9.24071)             (-10.6513 -5.00236 0.287113)
     0.010025             (1.88011 1.8755 0.403169)             (-3.37286 -14.5864 -9.24055)             (-10.6505 -5.00267 0.287263)
    0.0100255             (1.88077 1.87497 0.403355)             (-3.37076 -14.5855 -9.24042)             (-10.6497 -5.00299 0.287412)
     0.010026             (1.88144 1.87444 0.403545)             (-3.36869 -14.5846 -9.2403)             (-10.6489 -5.00332 0.287559)
    0.0100265             (1.88211 1.8739 0.403739)             (-3.36669 -14.5837 -9.24022)             (-10.6481 -5.00368 0.287707)
     0.010027             (1.88278 1.87337 0.403937)             (-3.36473 -14.5828 -9.24016)             (-10.6472 -5.00404 0.287855)
    0.0100275             (1.88345 1.87283 0.404138)             (-3.36284 -14.5818 -9.24013)             (-10.6463 -5.00443 0.288004)
     0.010028             (1.88413 1.87229 0.404343)             (-3.361 -14.5809 -9.24014)             (-10.6454 -5.00482 0.288154)
    0.0100285             (1.8848 1.87174 0.404552)             (-3.35923 -14.5799 -9.2402)             (-10.6445 -5.00523 0.288306)
     0.010029             (1.88549 1.8712 0.404765)             (-3.35753 -14.5789 -9.24033)             (-10.6435 -5.00566 0.28846)
    0.0100295             (1.88617 1.87065 0.404981)             (-3.3559 -14.5778 -9.24056)             (-10.6425 -5.0061 0.288617)
      0.01003             (1.88685 1.8701 0.405201)             (-3.35433 -14.5766 -9.2409)             (-10.6415 -5.00655 0.288777)
    0.0100305             (1.88754 1.86954 0.405424)             (-3.35281 -14.5753 -9.24136)             (-10.6405 -5.00701 0.288942)
     0.010031             (1.88823 1.86898 0.40565)             (-3.35134 -14.5739 -9.24192)             (-10.6395 -5.00748 0.28911)
    0.0100315             (1.88892 1.86842 0.40588)             (-3.34991 -14.5725 -9.24256)             (-10.6384 -5.00797 0.289284)
     0.010032             (1.88961 1.86786 0.406114)             (-3.34847 -14.571 -9.24327)             (-10.6373 -5.00847 0.289463)
    0.0100325             (1.8903 1.86729 0.40635)             (-3.347 -14.5694 -9.244)             (-10.6362 -5.00898 0.289648)
     0.010033             (1.89099 1.86672 0.40659)             (-3.34549 -14.5679 -9.24471)             (-10.635 -5.0095 0.28984)
    0.0100335             (1.89168 1.86615 0.406832)             (-3.34394 -14.5664 -9.24538)             (-10.6339 -5.01003 0.290038)
     0.010034             (1.89238 1.86557 0.407078)             (-3.34237 -14.565 -9.246)             (-10.6327 -5.01057 0.290244)
    0.0100345             (1.89307 1.865 0.407327)             (-3.34076 -14.5637 -9.24658)             (-10.6315 -5.01112 0.290457)
     0.010035             (1.89377 1.86442 0.407579)             (-3.33912 -14.5624 -9.24712)             (-10.6303 -5.01168 0.290678)
    0.0100355             (1.89446 1.86383 0.407834)             (-3.33744 -14.5613 -9.24762)             (-10.629 -5.01225 0.290908)
     0.010036             (1.89516 1.86325 0.408091)             (-3.33571 -14.5601 -9.24807)             (-10.6278 -5.01283 0.291146)
    0.0100365             (1.89585 1.86266 0.408351)             (-3.33395 -14.5591 -9.24849)             (-10.6265 -5.01342 0.291393)
     0.010037             (1.89655 1.86207 0.408614)             (-3.33216 -14.5581 -9.24886)             (-10.6252 -5.01401 0.291649)
    0.0100375             (1.89724 1.86148 0.40888)             (-3.33034 -14.5573 -9.24918)             (-10.6239 -5.01461 0.291915)
     0.010038             (1.89794 1.86088 0.409148)             (-3.32849 -14.5565 -9.24947)             (-10.6226 -5.01522 0.292189)
    0.0100385             (1.89863 1.86028 0.409419)             (-3.32664 -14.5557 -9.24971)             (-10.6212 -5.01583 0.292473)
     0.010039             (1.89933 1.85969 0.409692)             (-3.32477 -14.555 -9.24991)             (-10.6199 -5.01645 0.292766)
    0.0100395             (1.90002 1.85909 0.409967)             (-3.3229 -14.5544 -9.25007)             (-10.6185 -5.01708 0.293069)
      0.01004             (1.90072 1.85848 0.410245)             (-3.32102 -14.5539 -9.25019)             (-10.6172 -5.01771 0.29338)
    0.0100405             (1.90141 1.85788 0.410525)             (-3.31914 -14.5534 -9.25027)             (-10.6158 -5.01835 0.293699)
     0.010041             (1.9021 1.85727 0.410807)             (-3.31725 -14.553 -9.25032)             (-10.6144 -5.01899 0.294027)
    0.0100415             (1.90279 1.85666 0.411091)             (-3.31537 -14.5527 -9.25034)             (-10.6131 -5.01964 0.294363)
     0.010042             (1.90349 1.85605 0.411376)             (-3.31349 -14.5524 -9.25032)             (-10.6117 -5.02029 0.294707)
    0.0100425             (1.90418 1.85544 0.411664)             (-3.31161 -14.5521 -9.25028)             (-10.6103 -5.02095 0.295057)
     0.010043             (1.90487 1.85483 0.411953)             (-3.30973 -14.5519 -9.2502)             (-10.6089 -5.02161 0.295413)
    0.0100435             (1.90556 1.85422 0.412243)             (-3.30786 -14.5518 -9.25011)             (-10.6076 -5.02228 0.295775)
     0.010044             (1.90625 1.8536 0.412536)             (-3.306 -14.5517 -9.24999)             (-10.6062 -5.02295 0.296142)
    0.0100445             (1.90694 1.85299 0.412829)             (-3.30414 -14.5516 -9.24986)             (-10.6048 -5.02362 0.296512)
     0.010045             (1.90763 1.85237 0.413124)             (-3.3023 -14.5516 -9.2497)             (-10.6035 -5.0243 0.296885)
    0.0100455             (1.90832 1.85176 0.41342)             (-3.30046 -14.5516 -9.24954)             (-10.6021 -5.02499 0.29726)
     0.010046             (1.90901 1.85114 0.413717)             (-3.29863 -14.5516 -9.24936)             (-10.6008 -5.02568 0.297638)
    0.0100465             (1.9097 1.85052 0.414015)             (-3.29681 -14.5516 -9.24917)             (-10.5995 -5.02637 0.298017)
     0.010047             (1.91039 1.84991 0.414314)             (-3.29499 -14.5517 -9.24898)             (-10.5981 -5.02706 0.298397)
    0.0100475             (1.91109 1.84929 0.414613)             (-3.29319 -14.5518 -9.24877)             (-10.5968 -5.02776 0.298776)
     0.010048             (1.91178 1.84867 0.414913)             (-3.29139 -14.5519 -9.24857)             (-10.5956 -5.02846 0.299155)
    0.0100485             (1.91248 1.84805 0.415213)             (-3.2896 -14.552 -9.24836)             (-10.5943 -5.02917 0.299533)
     0.010049             (1.91318 1.84744 0.415514)             (-3.28782 -14.5522 -9.24815)             (-10.593 -5.02987 0.299907)
    0.0100495             (1.91388 1.84682 0.415815)             (-3.28604 -14.5523 -9.24794)             (-10.5918 -5.03058 0.300279)
      0.01005             (1.91458 1.84621 0.416115)             (-3.28427 -14.5525 -9.24773)             (-10.5906 -5.03129 0.300646)
    0.0100505             (1.91529 1.84559 0.416416)             (-3.28251 -14.5526 -9.24753)             (-10.5894 -5.03201 0.301009)
     0.010051             (1.916 1.84498 0.416717)             (-3.28075 -14.5527 -9.24732)             (-10.5882 -5.03272 0.301366)
    0.0100515             (1.91672 1.84437 0.417017)             (-3.279 -14.5529 -9.24712)             (-10.587 -5.03344 0.301716)
     0.010052             (1.91744 1.84376 0.417316)             (-3.27726 -14.553 -9.24693)             (-10.5859 -5.03416 0.302059)
    0.0100525             (1.91817 1.84315 0.417615)             (-3.27552 -14.5531 -9.24674)             (-10.5848 -5.03488 0.302394)
     0.010053             (1.9189 1.84254 0.417912)             (-3.2738 -14.5532 -9.24655)             (-10.5837 -5.03559 0.302721)
    0.0100535             (1.91964 1.84193 0.418208)             (-3.27208 -14.5533 -9.24637)             (-10.5826 -5.03631 0.303038)
     0.010054             (1.92038 1.84132 0.418502)             (-3.27037 -14.5534 -9.2462)             (-10.5816 -5.03703 0.303345)
    0.0100545             (1.92113 1.84072 0.418794)             (-3.26867 -14.5535 -9.24603)             (-10.5806 -5.03775 0.303642)
     0.010055             (1.92189 1.84011 0.419084)             (-3.26699 -14.5536 -9.24586)             (-10.5796 -5.03847 0.303928)
    0.0100555             (1.92265 1.83951 0.419373)             (-3.26532 -14.5536 -9.2457)             (-10.5787 -5.03919 0.304203)
     0.010056             (1.92343 1.83891 0.419658)             (-3.26366 -14.5536 -9.24555)             (-10.5778 -5.0399 0.304468)
    0.0100565             (1.92421 1.8383 0.419941)             (-3.26202 -14.5536 -9.2454)             (-10.5769 -5.04061 0.304723)
     0.010057             (1.925 1.8377 0.420221)             (-3.26039 -14.5536 -9.24525)             (-10.576 -5.04132 0.304968)
    0.0100575             (1.9258 1.8371 0.420496)             (-3.25877 -14.5536 -9.24511)             (-10.5752 -5.04202 0.305204)
     0.010058             (1.9266 1.8365 0.420768)             (-3.25717 -14.5536 -9.24497)             (-10.5744 -5.04272 0.305431)
    0.0100585             (1.92742 1.8359 0.421034)             (-3.25559 -14.5535 -9.24483)             (-10.5736 -5.04341 0.305651)
     0.010059             (1.92825 1.8353 0.421295)             (-3.25402 -14.5535 -9.2447)             (-10.5729 -5.04409 0.305864)
    0.0100595             (1.92909 1.8347 0.42155)             (-3.25248 -14.5534 -9.24456)             (-10.5722 -5.04477 0.306073)
      0.01006             (1.92994 1.8341 0.421798)             (-3.25094 -14.5533 -9.24442)             (-10.5715 -5.04543 0.30628)
    0.0100605             (1.9308 1.8335 0.42204)             (-3.24943 -14.5532 -9.24429)             (-10.5709 -5.04608 0.306485)
     0.010061             (1.93167 1.8329 0.422273)             (-3.24793 -14.5531 -9.24415)             (-10.5703 -5.04671 0.306692)
    0.0100615             (1.93256 1.8323 0.422498)             (-3.24644 -14.5529 -9.24401)             (-10.5698 -5.04733 0.306902)
     0.010062             (1.93345 1.8317 0.422714)             (-3.24498 -14.5528 -9.24387)             (-10.5692 -5.04793 0.307117)
    0.0100625             (1.93436 1.8311 0.422921)             (-3.24353 -14.5526 -9.24372)             (-10.5688 -5.04851 0.307341)
     0.010063             (1.93527 1.8305 0.423117)             (-3.2421 -14.5524 -9.24357)             (-10.5683 -5.04907 0.307575)
    0.0100635             (1.9362 1.82989 0.423303)             (-3.24068 -14.5523 -9.24342)             (-10.5679 -5.0496 0.307822)
     0.010064             (1.93714 1.82929 0.423478)             (-3.23928 -14.5521 -9.24326)             (-10.5675 -5.05011 0.308084)
    0.0100645             (1.9381 1.82869 0.423641)             (-3.2379 -14.5518 -9.24309)             (-10.5671 -5.05059 0.308363)
     0.010065             (1.93906 1.82809 0.423793)             (-3.23653 -14.5516 -9.24292)             (-10.5667 -5.05103 0.30866)
    0.0100655             (1.94003 1.82749 0.423932)             (-3.23517 -14.5514 -9.24275)             (-10.5664 -5.05144 0.308979)
     0.010066             (1.94102 1.82689 0.424059)             (-3.23384 -14.5512 -9.24256)             (-10.5661 -5.05182 0.309319)
    0.0100665             (1.94201 1.82629 0.424173)             (-3.23251 -14.5509 -9.24237)             (-10.5658 -5.05216 0.309684)
     0.010067             (1.94302 1.82569 0.424273)             (-3.2312 -14.5507 -9.24217)             (-10.5656 -5.05245 0.310073)
    0.0100675             (1.94404 1.82509 0.424361)             (-3.22991 -14.5504 -9.24197)             (-10.5653 -5.05271 0.310487)
     0.010068             (1.94507 1.82449 0.424435)             (-3.22863 -14.5501 -9.24175)             (-10.5651 -5.05292 0.310928)
    0.0100685             (1.94611 1.8239 0.424495)             (-3.22736 -14.5498 -9.24153)             (-10.5649 -5.05308 0.311394)
     0.010069             (1.94715 1.82331 0.424542)             (-3.2261 -14.5495 -9.2413)             (-10.5647 -5.0532 0.311886)
    0.0100695             (1.94821 1.82272 0.424575)             (-3.22486 -14.5492 -9.24107)             (-10.5644 -5.05327 0.312403)
      0.01007             (1.94928 1.82213 0.424594)             (-3.22362 -14.5489 -9.24082)             (-10.5642 -5.05329 0.312945)
    0.0100705             (1.95036 1.82155 0.4246)             (-3.2224 -14.5486 -9.24057)             (-10.564 -5.05326 0.313511)
     0.010071             (1.95145 1.82098 0.424592)             (-3.22119 -14.5482 -9.2403)             (-10.5638 -5.05317 0.314101)
    0.0100715             (1.95254 1.8204 0.424571)             (-3.21999 -14.5479 -9.24003)             (-10.5636 -5.05304 0.314715)
     0.010072             (1.95365 1.81984 0.424536)             (-3.2188 -14.5475 -9.23975)             (-10.5634 -5.05286 0.31535)
    0.0100725             (1.95476 1.81927 0.424487)             (-3.21762 -14.5472 -9.23946)             (-10.5631 -5.05262 0.316005)
     0.010073             (1.95588 1.81872 0.424425)             (-3.21644 -14.5468 -9.23917)             (-10.5629 -5.05233 0.31668)
    0.0100735             (1.95701 1.81817 0.424349)             (-3.21528 -14.5464 -9.23886)             (-10.5626 -5.05199 0.317372)
     0.010074             (1.95815 1.81763 0.424259)             (-3.21412 -14.546 -9.23854)             (-10.5623 -5.0516 0.318079)
    0.0100745             (1.9593 1.81709 0.424156)             (-3.21297 -14.5456 -9.23821)             (-10.562 -5.05116 0.3188)
     0.010075             (1.96045 1.81656 0.424039)             (-3.21183 -14.5452 -9.23787)             (-10.5616 -5.05068 0.319531)
    0.0100755             (1.96161 1.81605 0.423909)             (-3.21069 -14.5448 -9.23752)             (-10.5613 -5.05014 0.320271)
     0.010076             (1.96278 1.81553 0.423765)             (-3.20956 -14.5444 -9.23717)             (-10.5609 -5.04955 0.321019)
    0.0100765             (1.96396 1.81503 0.423608)             (-3.20844 -14.544 -9.2368)             (-10.5604 -5.04892 0.321771)
     0.010077             (1.96514 1.81454 0.423438)             (-3.20733 -14.5435 -9.23642)             (-10.56 -5.04825 0.322527)
    0.0100775             (1.96632 1.81405 0.423254)             (-3.20622 -14.5431 -9.23604)             (-10.5595 -5.04753 0.323282)
     0.010078             (1.96752 1.81358 0.423059)             (-3.20512 -14.5426 -9.23565)             (-10.559 -5.04677 0.324036)
    0.0100785             (1.96871 1.81312 0.42285)             (-3.20403 -14.5422 -9.23525)             (-10.5584 -5.04597 0.324785)
     0.010079             (1.96992 1.81266 0.42263)             (-3.20294 -14.5417 -9.23484)             (-10.5578 -5.04512 0.325527)
    0.0100795             (1.97112 1.81222 0.422398)             (-3.20186 -14.5413 -9.23443)             (-10.5572 -5.04424 0.32626)
      0.01008             (1.97233 1.81179 0.422155)             (-3.20079 -14.5408 -9.23402)             (-10.5566 -5.04333 0.326981)
    0.0100805             (1.97355 1.81137 0.4219)             (-3.19972 -14.5403 -9.23359)             (-10.5559 -5.04238 0.327689)
     0.010081             (1.97477 1.81097 0.421634)             (-3.19866 -14.5398 -9.23317)             (-10.5552 -5.0414 0.328382)
    0.0100815             (1.97599 1.81057 0.421358)             (-3.1976 -14.5394 -9.23274)             (-10.5545 -5.0404 0.329059)
     0.010082             (1.97721 1.81019 0.42107)             (-3.19655 -14.5389 -9.23231)             (-10.5538 -5.03938 0.32972)
    0.0100825             (1.97844 1.80983 0.420773)             (-3.1955 -14.5384 -9.23189)             (-10.5531 -5.03833 0.330365)
     0.010083             (1.97967 1.80948 0.420465)             (-3.19445 -14.5378 -9.23146)             (-10.5523 -5.03727 0.330994)
    0.0100835             (1.98091 1.80914 0.420146)             (-3.1934 -14.5373 -9.23105)             (-10.5515 -5.0362 0.331607)
     0.010084             (1.98214 1.80881 0.419818)             (-3.19233 -14.5367 -9.23064)             (-10.5507 -5.03513 0.332204)
    0.0100845             (1.98338 1.80851 0.41948)             (-3.19125 -14.5362 -9.23024)             (-10.5499 -5.03406 0.332788)
     0.010085             (1.98462 1.80821 0.419132)             (-3.19017 -14.5356 -9.22985)             (-10.5491 -5.03298 0.333358)
    0.0100855             (1.98587 1.80793 0.418775)             (-3.18908 -14.5349 -9.22946)             (-10.5483 -5.03192 0.333917)
     0.010086             (1.98711 1.80767 0.418407)             (-3.18799 -14.5343 -9.22907)             (-10.5474 -5.03086 0.334466)
    0.0100865             (1.98835 1.80742 0.41803)             (-3.18689 -14.5337 -9.22869)             (-10.5466 -5.02982 0.335007)
     0.010087             (1.98959 1.80718 0.417643)             (-3.18579 -14.533 -9.2283)             (-10.5457 -5.0288 0.335542)
    0.0100875             (1.99084 1.80696 0.417247)             (-3.18469 -14.5323 -9.22791)             (-10.5449 -5.0278 0.336073)
     0.010088             (1.99208 1.80675 0.416842)             (-3.18357 -14.5317 -9.22753)             (-10.544 -5.02682 0.336601)
    0.0100885             (1.99332 1.80656 0.416428)             (-3.18245 -14.531 -9.22714)             (-10.5432 -5.02586 0.337128)
     0.010089             (1.99456 1.80638 0.416007)             (-3.18131 -14.5303 -9.22676)             (-10.5423 -5.02494 0.337656)
    0.0100895             (1.9958 1.80622 0.415577)             (-3.18016 -14.5296 -9.22638)             (-10.5415 -5.02404 0.338184)
      0.01009             (1.99703 1.80607 0.415141)             (-3.17899 -14.529 -9.22599)             (-10.5406 -5.02316 0.338715)
    0.0100905             (1.99826 1.80593 0.414697)             (-3.17779 -14.5283 -9.22561)             (-10.5397 -5.02232 0.339248)
     0.010091             (1.99949 1.8058 0.414247)             (-3.17658 -14.5276 -9.22521)             (-10.5389 -5.0215 0.339784)
    0.0100915             (2.00072 1.80569 0.413791)             (-3.17535 -14.527 -9.22481)             (-10.538 -5.02072 0.340323)
     0.010092             (2.00194 1.8056 0.413329)             (-3.17411 -14.5263 -9.22439)             (-10.5372 -5.01996 0.340866)
    0.0100925             (2.00316 1.80552 0.412861)             (-3.17284 -14.5257 -9.22396)             (-10.5363 -5.01923 0.341411)
     0.010093             (2.00437 1.80545 0.412387)             (-3.17156 -14.525 -9.22351)             (-10.5354 -5.01854 0.341958)
    0.0100935             (2.00558 1.8054 0.411908)             (-3.17026 -14.5244 -9.22304)             (-10.5346 -5.01787 0.342507)
     0.010094             (2.00678 1.80536 0.411423)             (-3.16894 -14.5237 -9.22255)             (-10.5337 -5.01724 0.343056)
    0.0100945             (2.00798 1.80533 0.410933)             (-3.1676 -14.5231 -9.22205)             (-10.5329 -5.01663 0.343603)
     0.010095             (2.00918 1.80532 0.410439)             (-3.16623 -14.5224 -9.22153)             (-10.532 -5.01606 0.344147)
    0.0100955             (2.01037 1.80533 0.40994)             (-3.16485 -14.5218 -9.221)             (-10.5311 -5.01552 0.344687)
     0.010096             (2.01155 1.80534 0.409436)             (-3.16345 -14.5211 -9.22045)             (-10.5302 -5.01502 0.34522)
    0.0100965             (2.01273 1.80537 0.408928)             (-3.16203 -14.5205 -9.21989)             (-10.5293 -5.01454 0.345744)
     0.010097             (2.0139 1.80542 0.408416)             (-3.16059 -14.5198 -9.21931)             (-10.5285 -5.0141 0.346258)
    0.0100975             (2.01506 1.80548 0.4079)             (-3.15913 -14.5192 -9.21873)             (-10.5276 -5.01369 0.346758)
     0.010098             (2.01622 1.80555 0.407379)             (-3.15765 -14.5185 -9.21813)             (-10.5267 -5.01331 0.347242)
    0.0100985             (2.01737 1.80563 0.406854)             (-3.15615 -14.5179 -9.21753)             (-10.5258 -5.01296 0.347708)
     0.010099             (2.01851 1.80572 0.406325)             (-3.15463 -14.5172 -9.21691)             (-10.5249 -5.01265 0.348151)
    0.0100995             (2.01964 1.80583 0.405793)             (-3.1531 -14.5166 -9.21629)             (-10.524 -5.01237 0.348568)
       0.0101             (2.02076 1.80595 0.405256)             (-3.15155 -14.5159 -9.21567)             (-10.5231 -5.01212 0.348956)
